<PP_INFO>
Generated using virtual.x code                                                  
Author and generation date: unknown. Refer to original pseudopotential files    
Pseudo = x C_LDA.UPF + (1-x) N_LDA.UPF, with x=0.500                            
</PP_INFO>


<PP_HEADER>
   0                   Version Number
  Xx                   Element
   NC                  Norm - Conserving pseudopotential
    F                  Nonlinear Core Correction
SLA  PZ   NOGX NOGC    PZ   Exchange-Correlation functional
    4.50000000000      Z valence
    0.00000000000      Total energy
    0.00000    0.00000 Suggested cutoff for wfc and rho
    1                  Max angular momentum component
  461                  Number of points in mesh
    3    4             Number of Wavefunctions, Number of Projectors
 Wavefunctions         nl  l   occ
                       2s  0  2.00
                       2p  1  2.00
                       3d  2  0.00
</PP_HEADER>


<PP_MESH>
  <PP_R>
  1.04166666667E-03  1.06739583333E-03  1.09376051042E-03  1.12077639502E-03
  1.14845957198E-03  1.17682652341E-03  1.20589413854E-03  1.23567972376E-03
  1.26620101294E-03  1.29747617796E-03  1.32952383955E-03  1.36236307839E-03
  1.39601344642E-03  1.43049497855E-03  1.46582820452E-03  1.50203416117E-03
  1.53913440495E-03  1.57715102476E-03  1.61610665507E-03  1.65602448945E-03
  1.69692829434E-03  1.73884242321E-03  1.78179183106E-03  1.82580208929E-03
  1.87089940089E-03  1.91711061609E-03  1.96446324831E-03  2.01298549055E-03
  2.06270623216E-03  2.11365507610E-03  2.16586235648E-03  2.21935915668E-03
  2.27417732785E-03  2.33034950785E-03  2.38790914069E-03  2.44689049647E-03
  2.50732869173E-03  2.56925971042E-03  2.63272042526E-03  2.69774861977E-03
  2.76438301068E-03  2.83266327104E-03  2.90263005383E-03  2.97432501616E-03
  3.04779084406E-03  3.12307127791E-03  3.20021113848E-03  3.27925635360E-03
  3.36025398553E-03  3.44325225897E-03  3.52830058977E-03  3.61544961434E-03
  3.70475121981E-03  3.79625857494E-03  3.89002616174E-03  3.98610980794E-03
  4.08456672019E-03  4.18545551818E-03  4.28883626948E-03  4.39477052534E-03
  4.50332135731E-03  4.61455339484E-03  4.72853286369E-03  4.84532762542E-03
  4.96500721777E-03  5.08764289605E-03  5.21330767558E-03  5.34207637517E-03
  5.47402566164E-03  5.60923409548E-03  5.74778217764E-03  5.88975239742E-03
  6.03522928164E-03  6.18429944490E-03  6.33705164119E-03  6.49357681672E-03
  6.65396816410E-03  6.81832117775E-03  6.98673371084E-03  7.15930603350E-03
  7.33614089253E-03  7.51734357257E-03  7.70302195881E-03  7.89328660120E-03
  8.08825078025E-03  8.28803057452E-03  8.49274492971E-03  8.70251572947E-03
  8.91746786799E-03  9.13772932433E-03  9.36343123864E-03  9.59470799024E-03
  9.83169727759E-03  1.00745402004E-02  1.03233813433E-02  1.05783688625E-02
  1.08396545734E-02  1.11073940413E-02  1.13817466742E-02  1.16628758170E-02
  1.19509488497E-02  1.22461372863E-02  1.25486168773E-02  1.28585677141E-02
  1.31761743367E-02  1.35016258428E-02  1.38351160011E-02  1.41768433663E-02
  1.45270113975E-02  1.48858285790E-02  1.52535085449E-02  1.56302702059E-02
  1.60163378800E-02  1.64119414257E-02  1.68173163789E-02  1.72327040934E-02
  1.76583518846E-02  1.80945131761E-02  1.85414476516E-02  1.89994214085E-02
  1.94687071173E-02  1.99495841831E-02  2.04423389125E-02  2.09472646836E-02
  2.14646621213E-02  2.19948392757E-02  2.25381118058E-02  2.30948031674E-02
  2.36652448056E-02  2.42497763523E-02  2.48487458282E-02  2.54625098502E-02
  2.60914338435E-02  2.67358922594E-02  2.73962687982E-02  2.80729566375E-02
  2.87663586665E-02  2.94768877255E-02  3.02049668524E-02  3.09510295336E-02
  3.17155199631E-02  3.24988933062E-02  3.33016159709E-02  3.41241658853E-02
  3.49670327827E-02  3.58307184924E-02  3.67157372392E-02  3.76226159490E-02
  3.85518945629E-02  3.95041263587E-02  4.04798782797E-02  4.14797312732E-02
  4.25042806357E-02  4.35541363674E-02  4.46299235356E-02  4.57322826470E-02
  4.68618700284E-02  4.80193582181E-02  4.92054363660E-02  5.04208106443E-02
  5.16662046672E-02  5.29423599225E-02  5.42500362126E-02  5.55900121070E-02
  5.69630854061E-02  5.83700736156E-02  5.98118144339E-02  6.12891662504E-02
  6.28030086568E-02  6.43542429706E-02  6.59437927720E-02  6.75726044535E-02
  6.92416477835E-02  7.09519164837E-02  7.27044288209E-02  7.45002282127E-02
  7.63403838496E-02  7.82259913307E-02  8.01581733165E-02  8.21380801975E-02
  8.41668907783E-02  8.62458129806E-02  8.83760845612E-02  9.05589738498E-02
  9.27957805039E-02  9.50878362824E-02  9.74365058385E-02  9.98431875328E-02
  1.02309314265E-01  1.04836354327E-01  1.07425812279E-01  1.10079229842E-01
  1.12798186819E-01  1.15584302034E-01  1.18439234294E-01  1.21364683381E-01
  1.24362391061E-01  1.27434142120E-01  1.30581765430E-01  1.33807135036E-01
  1.37112171272E-01  1.40498841902E-01  1.43969163297E-01  1.47525201631E-01
  1.51169074111E-01  1.54902950241E-01  1.58729053112E-01  1.62649660724E-01
  1.66667107344E-01  1.70783784896E-01  1.75002144382E-01  1.79324697349E-01
  1.83754017373E-01  1.88292741602E-01  1.92943572320E-01  1.97709278556E-01
  2.02592697737E-01  2.07596737371E-01  2.12724376784E-01  2.17978668890E-01
  2.23362742012E-01  2.28879801740E-01  2.34533132843E-01  2.40326101224E-01
  2.46262155924E-01  2.52344831175E-01  2.58577748505E-01  2.64964618893E-01
  2.71509244980E-01  2.78215523331E-01  2.85087446757E-01  2.92129106692E-01
  2.99344695628E-01  3.06738509610E-01  3.14314950797E-01  3.22078530082E-01
  3.30033869775E-01  3.38185706358E-01  3.46538893305E-01  3.55098403970E-01
  3.63869334548E-01  3.72856907111E-01  3.82066472717E-01  3.91503514593E-01
  4.01173651403E-01  4.11082640593E-01  4.21236381816E-01  4.31640920446E-01
  4.42302451182E-01  4.53227321726E-01  4.64422036572E-01  4.75893260876E-01
  4.87647824419E-01  4.99692725682E-01  5.12035136007E-01  5.24682403866E-01
  5.37642059242E-01  5.50921818105E-01  5.64529587012E-01  5.78473467811E-01
  5.92761762466E-01  6.07402977999E-01  6.22405831556E-01  6.37779255595E-01
  6.53532403208E-01  6.69674653568E-01  6.86215617511E-01  7.03165143263E-01
  7.20533322302E-01  7.38330495363E-01  7.56567258598E-01  7.75254469886E-01
  7.94403255292E-01  8.14025015697E-01  8.34131433585E-01  8.54734479995E-01
  8.75846421651E-01  8.97479828265E-01  9.19647580023E-01  9.42362875250E-01
  9.65639238269E-01  9.89490527454E-01  1.01393094348E+00  1.03897503779E+00
  1.06463772122E+00  1.09093427293E+00  1.11788034948E+00  1.14549199411E+00
  1.17378564636E+00  1.20277815183E+00  1.23248677218E+00  1.26292919545E+00
  1.29412354658E+00  1.32608839818E+00  1.35884278161E+00  1.39240619832E+00
  1.42679863142E+00  1.46204055761E+00  1.49815295939E+00  1.53515733748E+00
  1.57307572372E+00  1.61193069409E+00  1.65174538224E+00  1.69254349318E+00
  1.73434931746E+00  1.77718774560E+00  1.82108428292E+00  1.86606506471E+00
  1.91215687181E+00  1.95938714654E+00  2.00778400906E+00  2.05737627408E+00
  2.10819346805E+00  2.16026584671E+00  2.21362441313E+00  2.26830093613E+00
  2.32432796925E+00  2.38173887009E+00  2.44056782019E+00  2.50084984534E+00
  2.56262083652E+00  2.62591757119E+00  2.69077773519E+00  2.75723994525E+00
  2.82534377190E+00  2.89512976307E+00  2.96663946822E+00  3.03991546308E+00
  3.11500137502E+00  3.19194190898E+00  3.27078287413E+00  3.35157121112E+00
  3.43435502004E+00  3.51918358903E+00  3.60610742368E+00  3.69517827705E+00
  3.78644918049E+00  3.87997447525E+00  3.97580984479E+00  4.07401234795E+00
  4.17464045295E+00  4.27775407214E+00  4.38341459772E+00  4.49168493828E+00
  4.60262955626E+00  4.71631450630E+00  4.83280747460E+00  4.95217781922E+00
  5.07449661136E+00  5.19983667766E+00  5.32827264360E+00  5.45988097790E+00
  5.59474003805E+00  5.73293011699E+00  5.87453349088E+00  6.01963446810E+00
  6.16831943947E+00  6.32067692962E+00  6.47679764978E+00  6.63677455173E+00
  6.80070288316E+00  6.96868024437E+00  7.14080664641E+00  7.31718457058E+00
  7.49791902947E+00  7.68311762950E+00  7.87289063495E+00  8.06735103363E+00
  8.26661460416E+00  8.47079998488E+00  8.68002874451E+00  8.89442545450E+00
  9.11411776322E+00  9.33923647198E+00  9.56991561283E+00  9.80629252847E+00
  1.00485079539E+01  1.02967061004E+01  1.05510347411E+01  1.08116452992E+01
  1.10786929381E+01  1.13523366536E+01  1.16327393690E+01  1.19200680314E+01
  1.22144937118E+01  1.25161917064E+01  1.28253416416E+01  1.31421275801E+01
  1.34667381314E+01  1.37993665632E+01  1.41402109173E+01  1.44894741270E+01
  1.48473641379E+01  1.52140940321E+01  1.55898821547E+01  1.59749522439E+01
  1.63695335644E+01  1.67738610434E+01  1.71881754112E+01  1.76127233438E+01
  1.80477576104E+01  1.84935372234E+01  1.89503275928E+01  1.94184006844E+01
  1.98980351813E+01  2.03895166502E+01  2.08931377115E+01  2.14091982130E+01
  2.19380054088E+01  2.24798741424E+01  2.30351270338E+01  2.36040946715E+01
  2.41871158099E+01  2.47845375704E+01  2.53967156484E+01  2.60240145249E+01
  2.66668076837E+01  2.73254778334E+01  2.80004171359E+01  2.86920274392E+01
  2.94007205169E+01  3.01269183137E+01  3.08710531960E+01  3.16335682100E+01
  3.24149173448E+01  3.32155658032E+01  3.40359902785E+01  3.48766792384E+01
  3.57381332156E+01  3.66208651060E+01  3.75254004741E+01  3.84522778659E+01
  3.94020491291E+01  4.03752797426E+01  4.13725491523E+01  4.23944511163E+01
  4.34415940589E+01  4.45146014322E+01  4.56141120875E+01  4.67407806561E+01
  4.78952779383E+01  4.90782913034E+01  5.02905250986E+01  5.15327010685E+01
  5.28055587849E+01  5.41098560869E+01  5.54463695322E+01  5.68158948597E+01
  5.82192474627E+01  5.96572628750E+01  6.11307972681E+01  6.26407279606E+01
  6.41879539412E+01  6.57733964036E+01  6.73979992947E+01  6.90627298773E+01
  7.07685793053E+01  7.25165632141E+01  7.43077223255E+01  7.61431230669E+01
  7.80238582067E+01
  </PP_R>
  <PP_RAB>
  2.54165487745E-05  2.60443375292E-05  2.66876326662E-05  2.73468171931E-05
  2.80222835777E-05  2.87144339821E-05  2.94236805015E-05  3.01504454099E-05
  3.08951614115E-05  3.16582718983E-05  3.24402312142E-05  3.32415049252E-05
  3.40625700969E-05  3.49039155783E-05  3.57660422931E-05  3.66494635377E-05
  3.75547052871E-05  3.84823065077E-05  3.94328194784E-05  4.04068101195E-05
  4.14048583295E-05  4.24275583302E-05  4.34755190210E-05  4.45493643408E-05
  4.56497336400E-05  4.67772820609E-05  4.79326809278E-05  4.91166181467E-05
  5.03297986150E-05  5.15729446407E-05  5.28467963734E-05  5.41521122438E-05
  5.54896694162E-05  5.68602642508E-05  5.82647127778E-05  5.97038511834E-05
  6.11785363076E-05  6.26896461544E-05  6.42380804144E-05  6.58247610007E-05
  6.74506325974E-05  6.91166632226E-05  7.08238448042E-05  7.25731937708E-05
  7.43657516570E-05  7.62025857229E-05  7.80847895902E-05  8.00134838931E-05
  8.19898169453E-05  8.40149654238E-05  8.60901350698E-05  8.82165614060E-05
  9.03955104727E-05  9.26282795814E-05  9.49161980871E-05  9.72606281798E-05
  9.96629656959E-05  1.02124640949E-04  1.04647119580E-04  1.07231903434E-04
  1.09880531448E-04  1.12594580575E-04  1.15375666715E-04  1.18225445683E-04
  1.21145614192E-04  1.24137910862E-04  1.27204117260E-04  1.30346058957E-04
  1.33565606613E-04  1.36864677096E-04  1.40245234621E-04  1.43709291916E-04
  1.47258911426E-04  1.50896206538E-04  1.54623342840E-04  1.58442539408E-04
  1.62356070131E-04  1.66366265064E-04  1.70475511811E-04  1.74686256952E-04
  1.79001007499E-04  1.83422332384E-04  1.87952863994E-04  1.92595299735E-04
  1.97352403638E-04  2.02227008008E-04  2.07222015106E-04  2.12340398879E-04
  2.17585206731E-04  2.22959561338E-04  2.28466662503E-04  2.34109789067E-04
  2.39892300857E-04  2.45817640688E-04  2.51889336413E-04  2.58111003022E-04
  2.64486344797E-04  2.71019157513E-04  2.77713330704E-04  2.84572849972E-04
  2.91601799366E-04  2.98804363811E-04  3.06184831597E-04  3.13747596937E-04
  3.21497162582E-04  3.29438142498E-04  3.37575264617E-04  3.45913373653E-04
  3.54457433983E-04  3.63212532602E-04  3.72183882157E-04  3.81376824046E-04
  3.90796831600E-04  4.00449513341E-04  4.10340616320E-04  4.20476029544E-04
  4.30861787473E-04  4.41504073624E-04  4.52409224242E-04  4.63583732081E-04
  4.75034250264E-04  4.86767596245E-04  4.98790755872E-04  5.11110887542E-04
  5.23735326465E-04  5.36671589028E-04  5.49927377277E-04  5.63510583496E-04
  5.77429294908E-04  5.91691798493E-04  6.06306585915E-04  6.21282358588E-04
  6.36628032845E-04  6.52352745256E-04  6.68465858064E-04  6.84976964758E-04
  7.01895895787E-04  7.19232724413E-04  7.36997772706E-04  7.55201617692E-04
  7.73855097649E-04  7.92969318561E-04  8.12555660730E-04  8.32625785550E-04
  8.53191642453E-04  8.74265476021E-04  8.95859833279E-04  9.17987571161E-04
  9.40661864169E-04  9.63896212214E-04  9.87704448655E-04  1.01210074854E-03
  1.03709963703E-03  1.06271599806E-03  1.08896508321E-03  1.11586252077E-03
  1.14342432503E-03  1.17166690586E-03  1.20060707843E-03  1.23026207327E-03
  1.26064954648E-03  1.29178759028E-03  1.32369474376E-03  1.35639000393E-03
  1.38989283703E-03  1.42422319010E-03  1.45940150290E-03  1.49544872002E-03
  1.53238630340E-03  1.57023624510E-03  1.60902108035E-03  1.64876390104E-03
  1.68948836939E-03  1.73121873212E-03  1.77397983480E-03  1.81779713672E-03
  1.86269672600E-03  1.90870533513E-03  1.95585035690E-03  2.00415986072E-03
  2.05366260928E-03  2.10438807573E-03  2.15636646120E-03  2.20962871279E-03
  2.26420654200E-03  2.32013244358E-03  2.37743971494E-03  2.43616247590E-03
  2.49633568906E-03  2.55799518057E-03  2.62117766153E-03  2.68592074977E-03
  2.75226299229E-03  2.82024388820E-03  2.88990391224E-03  2.96128453887E-03
  3.03442826699E-03  3.10937864518E-03  3.18618029772E-03  3.26487895107E-03
  3.34552146116E-03  3.42815584125E-03  3.51283129053E-03  3.59959822341E-03
  3.68850829952E-03  3.77961445452E-03  3.87297093155E-03  3.96863331356E-03
  4.06665855640E-03  4.16710502275E-03  4.27003251681E-03  4.37550231997E-03
  4.48357722728E-03  4.59432158479E-03  4.70780132794E-03  4.82408402074E-03
  4.94323889605E-03  5.06533689678E-03  5.19045071813E-03  5.31865485087E-03
  5.45002562568E-03  5.58464125864E-03  5.72258189773E-03  5.86392967060E-03
  6.00876873346E-03  6.15718532118E-03  6.30926779861E-03  6.46510671324E-03
  6.62479484906E-03  6.78842728183E-03  6.95610143569E-03  7.12791714115E-03
  7.30397669454E-03  7.48438491889E-03  7.66924922639E-03  7.85867968228E-03
  8.05278907043E-03  8.25169296047E-03  8.45550977660E-03  8.66436086808E-03
  8.87837058152E-03  9.09766633488E-03  9.32237869336E-03  9.55264144708E-03
  9.78859169083E-03  1.00303699056E-02  1.02781200423E-02  1.05319896073E-02
  1.07921297506E-02  1.10586953554E-02  1.13318451307E-02  1.16117417054E-02
  1.18985517256E-02  1.21924459532E-02  1.24935993682E-02  1.28021912726E-02
  1.31184053971E-02  1.34424300104E-02  1.37744580316E-02  1.41146871450E-02
  1.44633199175E-02  1.48205639195E-02  1.51866318483E-02  1.55617416549E-02
  1.59461166738E-02  1.63399857556E-02  1.67435834038E-02  1.71571499139E-02
  1.75809315168E-02  1.80151805252E-02  1.84601554842E-02  1.89161213246E-02
  1.93833495214E-02  1.98621182545E-02  2.03527125754E-02  2.08554245760E-02
  2.13705535631E-02  2.18984062361E-02  2.24392968701E-02  2.29935475028E-02
  2.35614881261E-02  2.41434568828E-02  2.47398002678E-02  2.53508733345E-02
  2.59770399058E-02  2.66186727915E-02  2.72761540094E-02  2.79498750135E-02
  2.86402369263E-02  2.93476507784E-02  3.00725377526E-02  3.08153294351E-02
  3.15764680722E-02  3.23564068335E-02  3.31556100823E-02  3.39745536514E-02
  3.48137251265E-02  3.56736241372E-02  3.65547626534E-02  3.74576652909E-02
  3.83828696236E-02  3.93309265033E-02  4.03024003879E-02  4.12978696775E-02
  4.23179270585E-02  4.33631798569E-02  4.44342503993E-02  4.55317763842E-02
  4.66564112609E-02  4.78088246190E-02  4.89897025871E-02  5.01997482410E-02
  5.14396820226E-02  5.27102421685E-02  5.40121851501E-02  5.53462861233E-02
  5.67133393906E-02  5.81141588735E-02  5.95495785977E-02  6.10204531890E-02
  6.25276583828E-02  6.40720915449E-02  6.56546722060E-02  6.72763426095E-02
  6.89380682720E-02  7.06408385583E-02  7.23856672707E-02  7.41735932523E-02
  7.60056810056E-02  7.78830213264E-02  7.98067319532E-02  8.17779582324E-02
  8.37978738008E-02  8.58676812837E-02  8.79886130114E-02  9.01619317527E-02
  9.23889314670E-02  9.46709380743E-02  9.70093102447E-02  9.94054402078E-02
  1.01860754581E-01  1.04376715219E-01  1.06954820085E-01  1.09596604141E-01
  1.12303640263E-01  1.15077540178E-01  1.17919955420E-01  1.20832578319E-01
  1.23817143004E-01  1.26875426436E-01  1.30009249469E-01  1.33220477931E-01
  1.36511023736E-01  1.39882846022E-01  1.43337952319E-01  1.46878399741E-01
  1.50506296214E-01  1.54223801731E-01  1.58033129634E-01  1.61936547936E-01
  1.65936380670E-01  1.70035009272E-01  1.74234874001E-01  1.78538475389E-01
  1.82948375731E-01  1.87467200612E-01  1.92097640467E-01  1.96842452186E-01
  2.01704460755E-01  2.06686560936E-01  2.11791718991E-01  2.17022974450E-01
  2.22383441919E-01  2.27876312934E-01  2.33504857864E-01  2.39272427853E-01
  2.45182456821E-01  2.51238463505E-01  2.57444053553E-01  2.63802921676E-01
  2.70318853841E-01  2.76995729531E-01  2.83837524051E-01  2.90848310895E-01
  2.98032264174E-01  3.05393661099E-01  3.12936884528E-01  3.20666425576E-01
  3.28586886288E-01  3.36702982379E-01  3.45019546044E-01  3.53541528831E-01
  3.62274004593E-01  3.71222172506E-01  3.80391360167E-01  3.89787026764E-01
  3.99414766325E-01  4.09280311053E-01  4.19389534736E-01  4.29748456244E-01
  4.40363243113E-01  4.51240215218E-01  4.62385848534E-01  4.73806778993E-01
  4.85509806434E-01  4.97501898653E-01  5.09790195549E-01  5.22382013379E-01
  5.35284849110E-01  5.48506384883E-01  5.62054492589E-01  5.75937238556E-01
  5.90162888349E-01  6.04739911691E-01  6.19676987510E-01  6.34983009101E-01
  6.50667089426E-01  6.66738566535E-01  6.83207009128E-01  7.00082222254E-01
  7.17374253143E-01  7.35093397196E-01  7.53250204107E-01  7.71855484148E-01
  7.90920314607E-01  8.10456046378E-01  8.30474310723E-01  8.50987026198E-01
  8.72006405745E-01  8.93544963967E-01  9.15615524577E-01  9.38231228034E-01
  9.61405539366E-01  9.85152256189E-01  1.00948551692E+00  1.03441980918E+00
  1.05996997847E+00  1.08615123694E+00  1.11297917249E+00  1.14046975805E+00
  1.16863936108E+00  1.19750475329E+00  1.22708312070E+00  1.25739207378E+00
  1.28844965801E+00  1.32027436456E+00  1.35288514136E+00  1.38630140435E+00
  1.42054304904E+00  1.45563046235E+00  1.49158453477E+00  1.52842667278E+00
  1.56617881160E+00  1.60486342825E+00  1.64450355492E+00  1.68512279273E+00
  1.72674532571E+00  1.76939593526E+00  1.81310001486E+00  1.85788358522E+00
  1.90377330978E+00
  </PP_RAB>
</PP_MESH>


<PP_LOCAL>
 -1.45842515613E+01 -1.45842584079E+01 -1.45842655003E+01 -1.45842728475E+01
 -1.45842804648E+01 -1.45842883539E+01 -1.45842965248E+01 -1.45843049879E+01
 -1.45843137535E+01 -1.45843228327E+01 -1.45843322369E+01 -1.45843419778E+01
 -1.45843520674E+01 -1.45843625185E+01 -1.45843733439E+01 -1.45843845571E+01
 -1.45843961722E+01 -1.45844082036E+01 -1.45844206662E+01 -1.45844335754E+01
 -1.45844469473E+01 -1.45844607985E+01 -1.45844751462E+01 -1.45844900080E+01
 -1.45845054026E+01 -1.45845213490E+01 -1.45845378668E+01 -1.45845549765E+01
 -1.45845726994E+01 -1.45845910574E+01 -1.45846100731E+01 -1.45846297702E+01
 -1.45846501729E+01 -1.45846713066E+01 -1.45846931972E+01 -1.45847158721E+01
 -1.45847393589E+01 -1.45847636870E+01 -1.45847888864E+01 -1.45848149881E+01
 -1.45848420245E+01 -1.45848700290E+01 -1.45848990362E+01 -1.45849290819E+01
 -1.45849602033E+01 -1.45849924390E+01 -1.45850258287E+01 -1.45850604137E+01
 -1.45850962369E+01 -1.45851333426E+01 -1.45851717767E+01 -1.45852115869E+01
 -1.45852528223E+01 -1.45852955342E+01 -1.45853397756E+01 -1.45853856012E+01
 -1.45854330680E+01 -1.45854822349E+01 -1.45855331631E+01 -1.45855859159E+01
 -1.45856405589E+01 -1.45856971602E+01 -1.45857557903E+01 -1.45858165225E+01
 -1.45858794326E+01 -1.45859445993E+01 -1.45860121039E+01 -1.45860820313E+01
 -1.45861544692E+01 -1.45862295085E+01 -1.45863072437E+01 -1.45863877726E+01
 -1.45864711969E+01 -1.45865576220E+01 -1.45866471573E+01 -1.45867399164E+01
 -1.45868360170E+01 -1.45869355815E+01 -1.45870387370E+01 -1.45871456151E+01
 -1.45872563529E+01 -1.45873710923E+01 -1.45874899812E+01 -1.45876131728E+01
 -1.45877408266E+01 -1.45878731079E+01 -1.45880101889E+01 -1.45881522482E+01
 -1.45882994716E+01 -1.45884520525E+01 -1.45886101915E+01 -1.45887740975E+01
 -1.45889439878E+01 -1.45891200883E+01 -1.45893026340E+01 -1.45894918695E+01
 -1.45896880495E+01 -1.45898914389E+01 -1.45901023136E+01 -1.45903209609E+01
 -1.45905476799E+01 -1.45907827823E+01 -1.45910265929E+01 -1.45912794500E+01
 -1.45915417064E+01 -1.45918137299E+01 -1.45920959037E+01 -1.45923886279E+01
 -1.45926923198E+01 -1.45930074145E+01 -1.45933343663E+01 -1.45936736497E+01
 -1.45940257597E+01 -1.45943912136E+01 -1.45947705517E+01 -1.45951643383E+01
 -1.45955731636E+01 -1.45959976444E+01 -1.45964384255E+01 -1.45968961817E+01
 -1.45973716185E+01 -1.45978654745E+01 -1.45983785226E+01 -1.45989115723E+01
 -1.45994654712E+01 -1.46000411071E+01 -1.46006394103E+01 -1.46012613561E+01
 -1.46019079667E+01 -1.46025803140E+01 -1.46032795228E+01 -1.46040067727E+01
 -1.46047633021E+01 -1.46055504109E+01 -1.46063694640E+01 -1.46072218953E+01
 -1.46081092110E+01 -1.46090329941E+01 -1.46099949085E+01 -1.46109967039E+01
 -1.46120402203E+01 -1.46131273932E+01 -1.46142602595E+01 -1.46154409629E+01
 -1.46166717601E+01 -1.46179550273E+01 -1.46192932673E+01 -1.46206891165E+01
 -1.46221453528E+01 -1.46236649040E+01 -1.46252508559E+01 -1.46269064619E+01
 -1.46286351528E+01 -1.46304405465E+01 -1.46323264592E+01 -1.46342969169E+01
 -1.46363561672E+01 -1.46385086919E+01 -1.46407592209E+01 -1.46431127456E+01
 -1.46455745343E+01 -1.46481501477E+01 -1.46508454550E+01 -1.46536666511E+01
 -1.46566202749E+01 -1.46597132280E+01 -1.46629527943E+01 -1.46663466608E+01
 -1.46699029386E+01 -1.46736301860E+01 -1.46775374309E+01 -1.46816341954E+01
 -1.46859305208E+01 -1.46904369928E+01 -1.46951647690E+01 -1.47001256053E+01
 -1.47053318848E+01 -1.47107966460E+01 -1.47165336123E+01 -1.47225572217E+01
 -1.47288826570E+01 -1.47355258762E+01 -1.47425036429E+01 -1.47498335567E+01
 -1.47575340835E+01 -1.47656245846E+01 -1.47741253459E+01 -1.47830576057E+01
 -1.47924435805E+01 -1.48023064898E+01 -1.48126705786E+01 -1.48235611361E+01
 -1.48350045125E+01 -1.48470281309E+01 -1.48596604952E+01 -1.48729311916E+01
 -1.48868708846E+01 -1.49015113056E+01 -1.49168852322E+01 -1.49330264584E+01
 -1.49499697531E+01 -1.49677508065E+01 -1.49864061605E+01 -1.50059731235E+01
 -1.50264896660E+01 -1.50479942946E+01 -1.50705259020E+01 -1.50941235887E+01
 -1.51188264560E+01 -1.51446733616E+01 -1.51717026389E+01 -1.51999517712E+01
 -1.52294570182E+01 -1.52602529878E+01 -1.52923721483E+01 -1.53258442727E+01
 -1.53606958107E+01 -1.53969491770E+01 -1.54346219510E+01 -1.54737259773E+01
 -1.55142663580E+01 -1.55562403279E+01 -1.55996360016E+01 -1.56444309829E+01
 -1.56905908269E+01 -1.57380673441E+01 -1.57867967371E+01 -1.58366975634E+01
 -1.58876685152E+01 -1.59395860128E+01 -1.59923016090E+01 -1.60456392069E+01
 -1.60993920959E+01 -1.61533198184E+01 -1.62071448856E+01 -1.62605493697E+01
 -1.63131714070E+01 -1.63646016625E+01 -1.64143798147E+01 -1.64619911373E+01
 -1.65068632696E+01 -1.65483632890E+01 -1.65857952176E+01 -1.66183981229E+01
 -1.66453449975E+01 -1.66657426401E+01 -1.66786327895E+01 -1.66829948121E+01
 -1.66777502784E+01 -1.66617698119E+01 -1.66338826273E+01 -1.65928892008E+01
 -1.65375775149E+01 -1.64667432941E+01 -1.63792145747E+01 -1.62738808279E+01
 -1.61497266729E+01 -1.60058699623E+01 -1.58416036898E+01 -1.56564407617E+01
 -1.54501601714E+01 -1.52228525468E+01 -1.49749624117E+01 -1.47073238751E+01
 -1.44211859116E+01 -1.41182230424E+01 -1.38005272155E+01 -1.34705771773E+01
 -1.31311827638E+01 -1.27854034119E+01 -1.24364427525E+01 -1.20875242374E+01
 -1.17417559681E+01 -1.14019957149E+01 -1.10707288551E+01 -1.07499719894E+01
 -1.04412128713E+01 -1.01453929715E+01 -9.86293300448E+00 -9.59379518213E+00
 -9.33757031198E+00 -9.09357470113E+00 -8.86094221185E+00 -8.63870085084E+00
 -8.42582982893E+00 -8.22129992075E+00 -8.02410466804E+00 -7.83329065151E+00
 -7.64799147434E+00 -7.46746396916E+00 -7.29111947685E+00 -7.11854080102E+00
 -6.94947793668E+00 -6.78382184806E+00 -6.62156250908E+00 -6.46274191003E+00
 -6.30741294718E+00 -6.15561147577E+00 -6.00734333608E+00 -5.86258360097E+00
 -5.72128297751E+00 -5.58337625287E+00 -5.44878981561E+00 -5.31744679253E+00
 -5.18926998303E+00 -5.06418325745E+00 -4.94211206150E+00 -4.82298363725E+00
 -4.70672696848E+00 -4.59327277290E+00 -4.48255345463E+00 -4.37450305936E+00
 -4.26905723137E+00 -4.16615317270E+00 -4.06572960373E+00 -3.96772672529E+00
 -3.87208618199E+00 -3.77875102674E+00 -3.68766568629E+00 -3.59877592779E+00
 -3.51202882622E+00 -3.42737273265E+00 -3.34475724344E+00 -3.26413317006E+00
 -3.18545250981E+00 -3.10866841716E+00 -3.03373517585E+00 -2.96060817164E+00
 -2.88924386572E+00 -2.81959976882E+00 -2.75163441586E+00 -2.68530734131E+00
 -2.62057905503E+00 -2.55741101881E+00 -2.49576562340E+00 -2.43560616610E+00
 -2.37689682894E+00 -2.31960265732E+00 -2.26368953923E+00 -2.20912418492E+00
 -2.15587410706E+00 -2.10390760143E+00 -2.05319372804E+00 -2.00370229268E+00
 -1.95540382895E+00 -1.90826958076E+00 -1.86227148515E+00 -1.81738215559E+00
 -1.77357486573E+00 -1.73082353340E+00 -1.68910270517E+00 -1.64838754112E+00
 -1.60865380012E+00 -1.56987782530E+00 -1.53203653011E+00 -1.49510738443E+00
 -1.45906840123E+00 -1.42389812349E+00 -1.38957561139E+00 -1.35608042986E+00
 -1.32339263640E+00 -1.29149276924E+00 -1.26036183570E+00 -1.22998130095E+00
 -1.20033307692E+00 -1.17139951153E+00 -1.14316337823E+00 -1.11560786571E+00
 -1.08871656786E+00 -1.06247347407E+00 -1.03686295966E+00 -1.01186977654E+00
 -9.87479044239E-01 -9.63676240910E-01 -9.40447194780E-01 -9.17778075685E-01
 -8.95655386827E-01 -8.74065956732E-01 -8.52996931435E-01 -8.32435766803E-01
 -8.12370221074E-01 -7.92788347569E-01 -7.73678487568E-01 -7.55029263396E-01
 -7.36829571610E-01 -7.19068576430E-01 -7.01735703246E-01 -6.84820632360E-01
 -6.68313292813E-01 -6.52203856410E-01 -6.36482731849E-01 -6.21140559025E-01
 -6.06168203457E-01 -5.91556750843E-01 -5.77297501755E-01 -5.63381966461E-01
 -5.49801859868E-01 -5.36549096597E-01 -5.23615786157E-01 -5.10994228257E-01
 -4.98676908216E-01 -4.86656492491E-01 -4.74925824336E-01 -4.63477919387E-01
 -4.52305961652E-01 -4.41403299888E-01 -4.30763442764E-01 -4.20380055303E-01
 -4.10246955430E-01 -4.00358109733E-01 -3.90707631240E-01 -3.81289773827E-01
 -3.72098930250E-01 -3.63129628427E-01 -3.54376528182E-01 -3.45834418055E-01
 -3.37498212214E-01 -3.29362947413E-01 -3.21423780046E-01 -3.13675983260E-01
 -3.06114944139E-01 -2.98736160964E-01 -2.91535240523E-01 -2.84507895503E-01
 -2.77649941938E-01 -2.70957296709E-01 -2.64425975123E-01 -2.58052088536E-01
 -2.51831842039E-01 -2.45761532193E-01 -2.39837544836E-01 -2.34056352918E-01
 -2.28414514413E-01 -2.22908670258E-01 -2.17535542361E-01 -2.12291931649E-01
 -2.07174716160E-01 -2.02180849185E-01 -1.97307357456E-01 -1.92551339373E-01
 -1.87909963280E-01 -1.83380465776E-01 -1.78960150069E-01 -1.74646384375E-01
 -1.70436600346E-01 -1.66328291545E-01 -1.62319011950E-01 -1.58406374500E-01
 -1.54588049672E-01 -1.50861764103E-01 -1.47225299197E-01 -1.43676489954E-01
 -1.40213223116E-01 -1.36833438077E-01 -1.33535117266E-01 -1.30316317444E-01
 -1.27175042714E-01 -1.24109730496E-01 -1.21117364547E-01 -1.18200775020E-01
 -1.15349332971E-01
</PP_LOCAL>


<PP_NONLOCAL>
  <PP_BETA>
    1    0             Beta    L
   377
  6.56434474163E-03  6.72649401386E-03  6.89264899910E-03  7.06290867782E-03
  7.23737449836E-03  7.41615040771E-03  7.59934290929E-03  7.78706114640E-03
  7.97941696054E-03  8.17652495922E-03  8.37850258451E-03  8.58547018327E-03
  8.79755107922E-03  9.01487164668E-03  9.23756138621E-03  9.46575300218E-03
  9.69958248217E-03  9.93918917845E-03  1.01847158914E-02  1.04363089553E-02
  1.06941183255E-02  1.09582976690E-02  1.12290044561E-02  1.15064000549E-02
  1.17906498284E-02  1.20819232334E-02  1.23803939223E-02  1.26862398477E-02
  1.29996433686E-02  1.33207913609E-02  1.36498753288E-02  1.39870915206E-02
  1.43326410464E-02  1.46867299993E-02  1.50495695794E-02  1.54213762211E-02
  1.58023717230E-02  1.61927833826E-02  1.65928441321E-02  1.70027926802E-02
  1.74228736551E-02  1.78533377532E-02  1.82944418897E-02  1.87464493545E-02
  1.92096299716E-02  1.96842602620E-02  2.01706236112E-02  2.06690104414E-02
  2.11797183873E-02  2.17030524768E-02  2.22393253165E-02  2.27888572811E-02
  2.33519767092E-02  2.39290201022E-02  2.45203323303E-02  2.51262668420E-02
  2.57471858804E-02  2.63834607041E-02  2.70354718146E-02  2.77036091890E-02
  2.83882725191E-02  2.90898714565E-02  2.98088258644E-02  3.05455660754E-02
  3.13005331566E-02  3.20741791817E-02  3.28669675095E-02  3.36793730710E-02
  3.45118826623E-02  3.53649952472E-02  3.62392222665E-02  3.71350879559E-02
  3.80531296727E-02  3.89938982303E-02  3.99579582432E-02  4.09458884796E-02
  4.19582822248E-02  4.29957476535E-02  4.40589082130E-02  4.51484030160E-02
  4.62648872452E-02  4.74090325678E-02  4.85815275620E-02  4.97830781554E-02
  5.10144080755E-02  5.22762593121E-02  5.35693925936E-02  5.48945878756E-02
  5.62526448444E-02  5.76443834337E-02  5.90706443563E-02  6.05322896513E-02
  6.20302032468E-02  6.35652915383E-02  6.51384839844E-02  6.67507337199E-02
  6.84030181861E-02  7.00963397804E-02  7.18317265246E-02  7.36102327532E-02
  7.54329398218E-02  7.73009568381E-02  7.92154214128E-02  8.11775004357E-02
  8.31883908733E-02  8.52493205928E-02  8.73615492102E-02  8.95263689656E-02
  9.17451056255E-02  9.40191194137E-02  9.63498059721E-02  9.87385973516E-02
  1.01186963035E-01  1.03696410994E-01  1.06268488780E-01  1.08904784649E-01