<PP_INFO>
Generated using Fritz-Haber code                                                
Author: unknown    Generation date: as well                                     
Info: automatically converted from FHI format                                   
    1        The Pseudo was generated with a Scalar-Relativistic Calculation
nl pn  l   occ               Rcut            Rcut US             E pseu
1s  0  0  2.00      0.00000000000      0.00000000000      0.00000000000
2s  0  1  2.00      0.00000000000      0.00000000000      0.00000000000
2p  0  2  1.00      0.00000000000      0.00000000000      0.00000000000
</PP_INFO>


<PP_HEADER>
   0                   Version Number
  B                    Element
   NC                  Norm - Conserving pseudopotential
    F                  Nonlinear Core Correction
SLA  PZ   NOGX NOGC    PZ   Exchange-Correlation functional
    3.00000000000      Z valence
    0.00000000000      Total energy
    0.00000    0.00000 Suggested cutoff for wfc and rho
    1                  Max angular momentum component
  453                  Number of points in mesh
    3    2             Number of Wavefunctions, Number of Projectors
 Wavefunctions         nl  l   occ
                       1s  0  2.00
                       2s  1  2.00
                       2p  2  1.00
</PP_HEADER>


<PP_MESH>
  <PP_R>
  1.25000000000E-03  1.28087500000E-03  1.31251261250E-03  1.34493167403E-03
  1.37815148638E-03  1.41219182809E-03  1.44707296624E-03  1.48281566851E-03
  1.51944121552E-03  1.55697141355E-03  1.59542860746E-03  1.63483569407E-03
  1.67521613571E-03  1.71659397426E-03  1.75899384543E-03  1.80244099341E-03
  1.84696128594E-03  1.89258122971E-03  1.93932798608E-03  1.98722938734E-03
  2.03631395320E-03  2.08661090785E-03  2.13815019727E-03  2.19096250714E-03
  2.24507928107E-03  2.30053273931E-03  2.35735589797E-03  2.41558258865E-03
  2.47524747859E-03  2.53638609132E-03  2.59903482777E-03  2.66323098802E-03
  2.72901279342E-03  2.79641940942E-03  2.86549096883E-03  2.93626859576E-03
  3.00879443008E-03  3.08311165250E-03  3.15926451032E-03  3.23729834372E-03
  3.31725961281E-03  3.39919592525E-03  3.48315606460E-03  3.56919001940E-03
  3.65734901288E-03  3.74768553349E-03  3.84025336617E-03  3.93510762432E-03
  4.03230478264E-03  4.13190271077E-03  4.23396070772E-03  4.33853953720E-03
  4.44570146377E-03  4.55551028993E-03  4.66803139409E-03  4.78333176952E-03
  4.90148006423E-03  5.02254662182E-03  5.14660352338E-03  5.27372463040E-03
  5.40398562877E-03  5.53746407381E-03  5.67423943643E-03  5.81439315051E-03
  5.95800866133E-03  6.10517147526E-03  6.25596921070E-03  6.41049165020E-03
  6.56883079396E-03  6.73108091457E-03  6.89733861316E-03  7.06770287691E-03
  7.24227513797E-03  7.42115933388E-03  7.60446196942E-03  7.79229218007E-03
  7.98476179692E-03  8.18198541330E-03  8.38408045301E-03  8.59116724020E-03
  8.80336907103E-03  9.02081228709E-03  9.24362635058E-03  9.47194392144E-03
  9.70590093630E-03  9.94563668942E-03  1.01912939157E-02  1.04430188754E-02
  1.07009614416E-02  1.09652751892E-02  1.12361174864E-02  1.15136495883E-02
  1.17980367331E-02  1.20894482404E-02  1.23880576120E-02  1.26940426350E-02
  1.30075854881E-02  1.33288728496E-02  1.36580960090E-02  1.39954509804E-02
  1.43411386196E-02  1.46953647435E-02  1.50583402527E-02  1.54302812570E-02
  1.58114092040E-02  1.62019510113E-02  1.66021392013E-02  1.70122120396E-02
  1.74324136770E-02  1.78629942948E-02  1.83042102539E-02  1.87563242471E-02
  1.92196054560E-02  1.96943297108E-02  2.01807796547E-02  2.06792449121E-02
  2.11900222615E-02  2.17134158113E-02  2.22497371819E-02  2.27993056903E-02
  2.33624485408E-02  2.39395010198E-02  2.45308066949E-02  2.51367176203E-02
  2.57575945455E-02  2.63938071308E-02  2.70457341669E-02  2.77137638009E-02
  2.83982937667E-02  2.90997316228E-02  2.98184949939E-02  3.05550118202E-02
  3.13097206122E-02  3.20830707113E-02  3.28755225579E-02  3.36875479650E-02
  3.45196303998E-02  3.53722652707E-02  3.62459602228E-02  3.71412354403E-02
  3.80586239557E-02  3.89986719674E-02  3.99619391650E-02  4.09489990624E-02
  4.19604393392E-02  4.29968621909E-02  4.40588846870E-02  4.51471391388E-02
  4.62622734755E-02  4.74049516304E-02  4.85758539357E-02  4.97756775279E-02
  5.10051367628E-02  5.22649636408E-02  5.35559082428E-02  5.48787391764E-02
  5.62342440340E-02  5.76232298617E-02  5.90465236392E-02  6.05049727731E-02
  6.19994456006E-02  6.35308319070E-02  6.51000434551E-02  6.67080145284E-02
  6.83557024873E-02  7.00440883387E-02  7.17741773207E-02  7.35469995005E-02
  7.53636103881E-02  7.72250915647E-02  7.91325513264E-02  8.10871253441E-02
  8.30899773401E-02  8.51422997804E-02  8.72453145850E-02  8.94002738553E-02
  9.16084606195E-02  9.38711895968E-02  9.61898079798E-02  9.85656962369E-02
  1.01000268934E-01  1.03494975577E-01  1.06051301473E-01  1.08670768620E-01
  1.11354936605E-01  1.14105403539E-01  1.16923807006E-01  1.19811825039E-01
  1.22771177118E-01  1.25803625193E-01  1.28910974735E-01  1.32095075811E-01
  1.35357824183E-01  1.38701162441E-01  1.42127081153E-01  1.45637620057E-01
  1.49234869273E-01  1.52920970544E-01  1.56698118516E-01  1.60568562044E-01
  1.64534605526E-01  1.68598610283E-01  1.72762995957E-01  1.77030241957E-01
  1.81402888933E-01  1.85883540290E-01  1.90474863735E-01  1.95179592869E-01
  2.00000528813E-01  2.04940541875E-01  2.10002573259E-01  2.15189636818E-01
  2.20504820848E-01  2.25951289923E-01  2.31532286784E-01  2.37251134267E-01
  2.43111237284E-01  2.49116084845E-01  2.55269252140E-01  2.61574402668E-01
  2.68035290414E-01  2.74655762087E-01  2.81439759411E-01  2.88391321468E-01
  2.95514587109E-01  3.02813797410E-01  3.10293298206E-01  3.17957542672E-01
  3.25811093976E-01  3.33858627997E-01  3.42104936109E-01  3.50554928031E-01
  3.59213634753E-01  3.68086211531E-01  3.77177940956E-01  3.86494236098E-01
  3.96040643730E-01  4.05822847630E-01  4.15846671966E-01  4.26118084764E-01
  4.36643201457E-01  4.47428288533E-01  4.58479767260E-01  4.69804217511E-01
  4.81408381684E-01  4.93299168712E-01  5.05483658179E-01  5.17969104536E-01
  5.30762941418E-01  5.43872786071E-01  5.57306443887E-01  5.71071913051E-01
  5.85177389303E-01  5.99631270819E-01  6.14442163208E-01  6.29618884639E-01
  6.45170471090E-01  6.61106181726E-01  6.77435504415E-01  6.94168161374E-01
  7.11314114960E-01  7.28883573599E-01  7.46886997867E-01  7.65335106714E-01
  7.84238883850E-01  8.03609584281E-01  8.23458741013E-01  8.43798171916E-01
  8.64639986762E-01  8.85996594435E-01  9.07880710318E-01  9.30305363863E-01
  9.53283906350E-01  9.76830018837E-01  1.00095772030E+00  1.02568137599E+00
  1.05101570598E+00  1.07697579392E+00  1.10357709603E+00  1.13083545030E+00
  1.15876708592E+00  1.18738863294E+00  1.21671713218E+00  1.24677004534E+00
  1.27756526546E+00  1.30912112752E+00  1.34145641937E+00  1.37459039293E+00
  1.40854277563E+00  1.44333378219E+00  1.47898412661E+00  1.51551503454E+00
  1.55294825589E+00  1.59130607781E+00  1.63061133794E+00  1.67088743798E+00
  1.71215835770E+00  1.75444866914E+00  1.79778355126E+00  1.84218880498E+00
  1.88769086846E+00  1.93431683291E+00  1.98209445869E+00  2.03105219182E+00
  2.08121918095E+00  2.13262529472E+00  2.18530113950E+00  2.23927807765E+00
  2.29458824617E+00  2.35126457585E+00  2.40934081087E+00  2.46885152890E+00
  2.52983216166E+00  2.59231901606E+00  2.65634929575E+00  2.72196112336E+00
  2.78919356310E+00  2.85808664411E+00  2.92868138422E+00  3.00101981441E+00
  3.07514500383E+00  3.15110108542E+00  3.22893328223E+00  3.30868793430E+00
  3.39041252628E+00  3.47415571568E+00  3.55996736186E+00  3.64789855570E+00
  3.73800165002E+00  3.83033029078E+00  3.92493944896E+00  4.02188545335E+00
  4.12122602405E+00  4.22302030684E+00  4.32732890842E+00  4.43421393246E+00
  4.54373901659E+00  4.65596937030E+00  4.77097181375E+00  4.88881481754E+00
  5.00956854354E+00  5.13330488656E+00  5.26009751726E+00  5.39002192594E+00
  5.52315546751E+00  5.65957740756E+00  5.79936896952E+00  5.94261338307E+00
  6.08939593363E+00  6.23980401319E+00  6.39392717232E+00  6.55185717347E+00
  6.71368804566E+00  6.87951614039E+00  7.04944018905E+00  7.22356136172E+00
  7.40198332736E+00  7.58481231554E+00  7.77215717974E+00  7.96412946208E+00
  8.16084345979E+00  8.36241629325E+00  8.56896797569E+00  8.78062148469E+00
  8.99750283536E+00  9.21974115540E+00  9.44746876193E+00  9.68082124035E+00
  9.91993752499E+00  1.01649599819E+01  1.04160344934E+01  1.06733105454E+01
  1.09369413159E+01  1.12070837664E+01  1.14838987354E+01  1.17675510342E+01
  1.20582095447E+01  1.23560473205E+01  1.26612416893E+01  1.29739743590E+01
  1.32944315257E+01  1.36228039844E+01  1.39592872428E+01  1.43040816377E+01
  1.46573924541E+01  1.50194300477E+01  1.53904099699E+01  1.57705530962E+01
  1.61600857576E+01  1.65592398759E+01  1.69682531008E+01  1.73873689524E+01
  1.78168369655E+01  1.82569128386E+01  1.87078585857E+01  1.91699426927E+01
  1.96434402772E+01  2.01286332521E+01  2.06258104934E+01  2.11352680126E+01
  2.16573091325E+01  2.21922446681E+01  2.27403931114E+01  2.33020808212E+01
  2.38776422175E+01  2.44674199803E+01  2.50717652538E+01  2.56910378556E+01
  2.63256064906E+01  2.69758489709E+01  2.76421524405E+01  2.83249136058E+01
  2.90245389719E+01  2.97414450845E+01  3.04760587780E+01  3.12288174299E+01
  3.20001692204E+01  3.27905734001E+01  3.36005005631E+01  3.44304329270E+01
  3.52808646203E+01  3.61523019764E+01  3.70452638353E+01  3.79602818520E+01
  3.88979008137E+01  3.98586789638E+01  4.08431883342E+01  4.18520150861E+01
  4.28857598587E+01  4.39450381272E+01  4.50304805690E+01  4.61427334390E+01
  4.72824589550E+01  4.84503356912E+01  4.96470589827E+01  5.08733413396E+01
  5.21299128707E+01  5.34175217186E+01  5.47369345050E+01  5.60889367873E+01
  5.74743335260E+01  5.88939495641E+01  6.03486301183E+01  6.18392412822E+01
  6.33666705419E+01  6.49318273043E+01  6.65356434387E+01  6.81790738316E+01
  6.98630969553E+01  7.15887154501E+01  7.33569567217E+01  7.51688735527E+01
  7.70255447294E+01
  </PP_R>
  <PP_RAB>
  3.04998585294E-05  3.12532050351E-05  3.20251591995E-05  3.28161806317E-05
  3.36267402933E-05  3.44573207785E-05  3.53084166018E-05  3.61805344918E-05
  3.70741936938E-05  3.79899262780E-05  3.89282774571E-05  3.98898059103E-05
  4.08750841163E-05  4.18846986939E-05  4.29192507517E-05  4.39793562452E-05
  4.50656463445E-05  4.61787678092E-05  4.73193833741E-05  4.84881721434E-05
  4.96858299954E-05  5.09130699963E-05  5.21706228252E-05  5.34592372089E-05
  5.47796803680E-05  5.61327384731E-05  5.75192171134E-05  5.89399417761E-05
  6.03957583379E-05  6.18875335689E-05  6.34161556480E-05  6.49825346926E-05
  6.65876032995E-05  6.82323171010E-05  6.99176553334E-05  7.16446214201E-05
  7.34142435692E-05  7.52275753853E-05  7.70856964973E-05  7.89897132008E-05
  8.09407591169E-05  8.29399958671E-05  8.49886137650E-05  8.70878325250E-05
  8.92389019883E-05  9.14431028675E-05  9.37017475083E-05  9.60161806717E-05
  9.83877803343E-05  1.00817958509E-04  1.03308162084E-04  1.05859873687E-04
  1.08474612567E-04  1.11153935498E-04  1.13899437705E-04  1.16712753816E-04
  1.19595558835E-04  1.22549569138E-04  1.25576543496E-04  1.28678284120E-04
  1.31856637738E-04  1.35113496690E-04  1.38450800058E-04  1.41870534820E-04
  1.45374737030E-04  1.48965493035E-04  1.52644940713E-04  1.56415270748E-04
  1.60278727936E-04  1.64237612516E-04  1.68294281545E-04  1.72451150299E-04
  1.76710693711E-04  1.81075447846E-04  1.85548011408E-04  1.90131047290E-04
  1.94827284158E-04  1.99639518076E-04  2.04570614173E-04  2.09623508343E-04
  2.14801208999E-04  2.20106798861E-04  2.25543436793E-04  2.31114359682E-04
  2.36822884366E-04  2.42672409610E-04  2.48666418127E-04  2.54808478655E-04
  2.61102248078E-04  2.67551473605E-04  2.74159995003E-04  2.80931746880E-04
  2.87870761028E-04  2.94981168825E-04  3.02267203695E-04  3.09733203627E-04
  3.17383613756E-04  3.25222989016E-04  3.33255996845E-04  3.41487419967E-04
  3.49922159240E-04  3.58565236573E-04  3.67421797916E-04  3.76497116325E-04
  3.85796595098E-04  3.95325770997E-04  4.05090317541E-04  4.15096048384E-04
  4.25348920779E-04  4.35855039122E-04  4.46620658589E-04  4.57652188856E-04
  4.68956197920E-04  4.80539416009E-04  4.92408739585E-04  5.04571235452E-04
  5.17034144968E-04  5.29804888349E-04  5.42891069091E-04  5.56300478497E-04
  5.70041100316E-04  5.84121115494E-04  5.98548907047E-04  6.13333065051E-04
  6.28482391758E-04  6.44005906834E-04  6.59912852733E-04  6.76212700195E-04
  6.92915153890E-04  7.10030158191E-04  7.27567903099E-04  7.45538830305E-04
  7.63953639414E-04  7.82823294307E-04  8.02159029677E-04  8.21972357710E-04
  8.42275074945E-04  8.63079269296E-04  8.84397327248E-04  9.06241941231E-04
  9.28626117179E-04  9.51563182273E-04  9.75066792876E-04  9.99150942660E-04
  1.02382997094E-03  1.04911857123E-03  1.07503179993E-03  1.10158508539E-03
  1.12879423700E-03  1.15667545466E-03  1.18524533839E-03  1.21452089824E-03
  1.24451956443E-03  1.27525919767E-03  1.30675809986E-03  1.33903502492E-03
  1.37210919004E-03  1.40600028703E-03  1.44072849412E-03  1.47631448793E-03
  1.51277945578E-03  1.55014510834E-03  1.58843369251E-03  1.62766800472E-03
  1.66787140443E-03  1.70906782812E-03  1.75128180348E-03  1.79453846402E-03
  1.83886356408E-03  1.88428349412E-03  1.93082529642E-03  1.97851668124E-03
  2.02738604327E-03  2.07746247854E-03  2.12877580176E-03  2.18135656406E-03
  2.23523607119E-03  2.29044640215E-03  2.34702042829E-03  2.40499183286E-03
  2.46439513114E-03  2.52526569088E-03  2.58763975344E-03  2.65155445535E-03
  2.71704785040E-03  2.78415893230E-03  2.85292765793E-03  2.92339497108E-03
  2.99560282687E-03  3.06959421669E-03  3.14541319384E-03  3.22310489973E-03
  3.30271559075E-03  3.38429266584E-03  3.46788469469E-03  3.55354144665E-03
  3.64131392038E-03  3.73125437422E-03  3.82341635726E-03  3.91785474128E-03
  4.01462575339E-03  4.11378700950E-03  4.21539754864E-03  4.31951786809E-03
  4.42620995943E-03  4.53553734543E-03  4.64756511786E-03  4.76235997627E-03
  4.87999026768E-03  5.00052602730E-03  5.12403902017E-03  5.25060278397E-03
  5.38029267273E-03  5.51318590175E-03  5.64936159352E-03  5.78890082488E-03
  5.93188667526E-03  6.07840427614E-03  6.22854086176E-03  6.38238582104E-03
  6.54003075082E-03  6.70156951037E-03  6.86709827727E-03  7.03671560472E-03
  7.21052248016E-03  7.38862238542E-03  7.57112135834E-03  7.75812805589E-03
  7.94975381887E-03  8.14611273820E-03  8.34732172283E-03  8.55350056938E-03
  8.76477203345E-03  8.98126190267E-03  9.20309907167E-03  9.43041561874E-03
  9.66334688452E-03  9.90203155257E-03  1.01466117319E-02  1.03972330417E-02
  1.06540446978E-02  1.09171996019E-02  1.11868544320E-02  1.14631697365E-02
  1.17463100290E-02  1.20364438867E-02  1.23337440507E-02  1.26383875288E-02
  1.29505557007E-02  1.32704344265E-02  1.35982141569E-02  1.39340900465E-02
  1.42782620707E-02  1.46309351438E-02  1.49923192419E-02  1.53626295272E-02
  1.57420864765E-02  1.61309160125E-02  1.65293496380E-02  1.69376245740E-02
  1.73559839010E-02  1.77846767033E-02  1.82239582179E-02  1.86740899859E-02
  1.91353400086E-02  1.96079829068E-02  2.00923000846E-02  2.05885798967E-02
  2.10971178201E-02  2.16182166303E-02  2.21521865810E-02  2.26993455896E-02
  2.32600194256E-02  2.38345419055E-02  2.44232550905E-02  2.50265094913E-02
  2.56446642757E-02  2.62780874833E-02  2.69271562441E-02  2.75922570034E-02
  2.82737857513E-02  2.89721482594E-02  2.96877603214E-02  3.04210480014E-02
  3.11724478870E-02  3.19424073498E-02  3.27313848113E-02  3.35398500162E-02
  3.43682843116E-02  3.52171809341E-02  3.60870453031E-02  3.69783953221E-02
  3.78917616866E-02  3.88276882002E-02  3.97867320988E-02  4.07694643816E-02
  4.17764701519E-02  4.28083489646E-02  4.38657151840E-02  4.49491983491E-02
  4.60594435483E-02  4.71971118039E-02  4.83628804655E-02  4.95574436130E-02
  5.07815124702E-02  5.20358158283E-02  5.33211004792E-02  5.46381316610E-02
  5.59876935131E-02  5.73705895428E-02  5.87876431046E-02  6.02396978892E-02
  6.17276184271E-02  6.32522906023E-02  6.48146221801E-02  6.64155433480E-02
  6.80560072687E-02  6.97369906482E-02  7.14594943172E-02  7.32245438269E-02
  7.50331900594E-02  7.68865098538E-02  7.87856066472E-02  8.07316111314E-02
  8.27256819264E-02  8.47690062699E-02  8.68628007248E-02  8.90083119027E-02
  9.12068172067E-02  9.34596255917E-02  9.57680783438E-02  9.81335498789E-02
  1.00557448561E-01  1.03041217540E-01  1.05586335614E-01  1.08194318103E-01
  1.10866717760E-01  1.13605125689E-01  1.16411172294E-01  1.19286528249E-01
  1.22232905497E-01  1.25252058263E-01  1.28345784102E-01  1.31515924969E-01
  1.34764368316E-01  1.38093048213E-01  1.41503946504E-01  1.44999093983E-01
  1.48580571604E-01  1.52250511723E-01  1.56011099362E-01  1.59864573517E-01
  1.63813228483E-01  1.67859415226E-01  1.72005542782E-01  1.76254079689E-01
  1.80607555457E-01  1.85068562077E-01  1.89639755560E-01  1.94323857523E-01
  1.99123656803E-01  2.04042011127E-01  2.09081848801E-01  2.14246170467E-01
  2.19538050877E-01  2.24960640734E-01  2.30517168560E-01  2.36210942624E-01
  2.42045352906E-01  2.48023873123E-01  2.54150062789E-01  2.60427569340E-01
  2.66860130303E-01  2.73451575521E-01  2.80205829437E-01  2.87126913424E-01
  2.94218948185E-01  3.01486156206E-01  3.08932864264E-01  3.16563506011E-01
  3.24382624610E-01  3.32394875437E-01  3.40605028861E-01  3.49017973074E-01
  3.57638717009E-01  3.66472393319E-01  3.75524261434E-01  3.84799710691E-01
  3.94304263545E-01  4.04043578855E-01  4.14023455252E-01  4.24249834597E-01
  4.34728805512E-01  4.45466607008E-01  4.56469632201E-01  4.67744432116E-01
  4.79297719590E-01  4.91136373263E-01  5.03267441683E-01  5.15698147493E-01
  5.28435891736E-01  5.41488258261E-01  5.54863018241E-01  5.68568134791E-01
  5.82611767720E-01  5.97002278383E-01  6.11748234659E-01  6.26858416055E-01
  6.42341818932E-01  6.58207661859E-01  6.74465391107E-01  6.91124686268E-01
  7.08195466019E-01  7.25687894029E-01  7.43612385012E-01  7.61979610922E-01
  7.80800507311E-01  8.00086279842E-01  8.19848410954E-01  8.40098666705E-01
  8.60849103772E-01  8.82112076635E-01  9.03900244928E-01  9.26226580978E-01
  9.49104377528E-01  9.72547255653E-01  9.96569172868E-01  1.02118443144E+00
  1.04640768689E+00  1.07225395676E+00  1.09873862949E+00  1.12587747364E+00
  1.15368664724E+00  1.18218270743E+00  1.21138262030E+00  1.24130377102E+00
  1.27196397417E+00  1.30338148433E+00  1.33557500699E+00  1.36856370966E+00
  1.40236723329E+00  1.43700570395E+00  1.47249974484E+00  1.50887048854E+00
  1.54613958961E+00  1.58432923747E+00  1.62346216963E+00  1.66356168522E+00
  1.70465165885E+00  1.74675655482E+00  1.78990144173E+00  1.83411200734E+00
  1.87941457392E+00
  </PP_RAB>
</PP_MESH>


<PP_LOCAL>
 -6.91495090378E+00 -6.91495385123E+00 -6.91495690891E+00 -6.91496008096E+00
 -6.91496337908E+00 -6.91496679804E+00 -6.91497034276E+00 -6.91497401799E+00
 -6.91497782868E+00 -6.91498178001E+00 -6.91498587732E+00 -6.91499012613E+00
 -6.91499453222E+00 -6.91499910152E+00 -6.91500384024E+00 -6.91500875477E+00
 -6.91501385179E+00 -6.91501913818E+00 -6.91502462113E+00 -6.91503030807E+00
 -6.91503620672E+00 -6.91504232509E+00 -6.91504867150E+00 -6.91505525457E+00
 -6.91506208328E+00 -6.91506916692E+00 -6.91507651515E+00 -6.91508413800E+00
 -6.91509204588E+00 -6.91510024961E+00 -6.91510876040E+00 -6.91511758992E+00
 -6.91512675027E+00 -6.91513625402E+00 -6.91514611423E+00 -6.91515634446E+00
 -6.91516695880E+00 -6.91517797187E+00 -6.91518939887E+00 -6.91520125558E+00
 -6.91521355842E+00 -6.91522632441E+00 -6.91523957125E+00 -6.91525331735E+00
 -6.91526758179E+00 -6.91528238446E+00 -6.91529774597E+00 -6.91531368777E+00
 -6.91533023215E+00 -6.91534740226E+00 -6.91536522219E+00 -6.91538371696E+00
 -6.91540291257E+00 -6.91542283608E+00 -6.91544351558E+00 -6.91546498031E+00
 -6.91548726067E+00 -6.91551038824E+00 -6.91553439589E+00 -6.91555931780E+00
 -6.91558518951E+00 -6.91561204797E+00 -6.91563993165E+00 -6.91566888054E+00
 -6.91569893626E+00 -6.91573014209E+00 -6.91576254307E+00 -6.91579618608E+00
 -6.91583111989E+00 -6.91586739526E+00 -6.91590506501E+00 -6.91594418414E+00
 -6.91598480988E+00 -6.91602700182E+00 -6.91607082200E+00 -6.91611633501E+00
 -6.91616360812E+00 -6.91621271137E+00 -6.91626371772E+00 -6.91631670314E+00
 -6.91637174678E+00 -6.91642893111E+00 -6.91648834202E+00 -6.91655006903E+00
 -6.91661420539E+00 -6.91668084833E+00 -6.91675009914E+00 -6.91682206342E+00
 -6.91689685125E+00 -6.91697457739E+00 -6.91705536149E+00 -6.91713932833E+00
 -6.91722660801E+00 -6.91731733624E+00 -6.91741165457E+00 -6.91750971064E+00
 -6.91761165851E+00 -6.91771765889E+00 -6.91782787949E+00 -6.91794249533E+00
 -6.91806168907E+00 -6.91818565139E+00 -6.91831458130E+00 -6.91844868660E+00
 -6.91858818424E+00 -6.91873330077E+00 -6.91888427278E+00 -6.91904134736E+00
 -6.91920478261E+00 -6.91937484815E+00 -6.91955182565E+00 -6.91973600941E+00
 -6.91992770698E+00 -6.92012723971E+00 -6.92033494350E+00 -6.92055116942E+00
 -6.92077628445E+00 -6.92101067224E+00 -6.92125473391E+00 -6.92150888885E+00
 -6.92177357564E+00 -6.92204925291E+00 -6.92233640034E+00 -6.92263551965E+00
 -6.92294713563E+00 -6.92327179730E+00 -6.92361007899E+00 -6.92396258163E+00
 -6.92432993397E+00 -6.92471279393E+00 -6.92511184996E+00 -6.92552782258E+00
 -6.92596146581E+00 -6.92641356886E+00 -6.92688495775E+00 -6.92737649709E+00
 -6.92788909191E+00 -6.92842368958E+00 -6.92898128185E+00 -6.92956290690E+00
 -6.93016965159E+00 -6.93080265376E+00 -6.93146310458E+00 -6.93215225114E+00
 -6.93287139901E+00 -6.93362191504E+00 -6.93440523015E+00 -6.93522284241E+00
 -6.93607632006E+00 -6.93696730485E+00 -6.93789751535E+00 -6.93886875057E+00
 -6.93988289355E+00 -6.94094191526E+00 -6.94204787857E+00 -6.94320294238E+00
 -6.94440936597E+00 -6.94566951349E+00 -6.94698585858E+00 -6.94836098925E+00
 -6.94979761289E+00 -6.95129856151E+00 -6.95286679707E+00 -6.95450541717E+00
 -6.95621766076E+00 -6.95800691417E+00 -6.95987671730E+00 -6.96183077002E+00
 -6.96387293875E+00 -6.96600726326E+00 -6.96823796372E+00 -6.97056944786E+00
 -6.97300631841E+00 -6.97555338068E+00 -6.97821565039E+00 -6.98099836163E+00
 -6.98390697505E+00 -6.98694718613E+00 -6.99012493375E+00 -6.99344640874E+00
 -6.99691806267E+00 -7.00054661667E+00 -7.00433907041E+00 -7.00830271104E+00
 -7.01244512218E+00 -7.01677419295E+00 -7.02129812680E+00 -7.02602545037E+00
 -7.03096502207E+00 -7.03612604043E+00 -7.04151805217E+00 -7.04715095979E+00
 -7.05303502871E+00 -7.05918089366E+00 -7.06559956442E+00 -7.07230243052E+00
 -7.07930126488E+00 -7.08660822613E+00 -7.09423585931E+00 -7.10219709485E+00
 -7.11050524537E+00 -7.11917400000E+00 -7.12821741588E+00 -7.13764990636E+00
 -7.14748622536E+00 -7.15774144737E+00 -7.16843094249E+00 -7.17957034566E+00
 -7.19117551942E+00 -7.20326250908E+00 -7.21584748955E+00 -7.22894670240E+00
 -7.24257638207E+00 -7.25675266962E+00 -7.27149151261E+00 -7.28680854914E+00
 -7.30271897429E+00 -7.31923738660E+00 -7.33637761231E+00 -7.35415250474E+00
 -7.37257371599E+00 -7.39165143771E+00 -7.41139410773E+00 -7.43180807897E+00
 -7.45289724651E+00 -7.47466262904E+00 -7.49710190020E+00 -7.52020886521E+00
 -7.54397287846E+00 -7.56837819704E+00 -7.59340326572E+00 -7.61901992882E+00
 -7.64519256473E+00 -7.67187713932E+00 -7.69902017530E+00 -7.72655763541E+00
 -7.75441371891E+00 -7.78249957251E+00 -7.81071191906E+00 -7.83893161033E+00
 -7.86702211362E+00 -7.89482794586E+00 -7.92217307447E+00 -7.94885930876E+00
 -7.97466471336E+00 -7.99934208144E+00 -8.02261751319E+00 -8.04418915299E+00
 -8.06372614593E+00 -8.08086788146E+00 -8.09522359712E+00 -8.10637241940E+00
 -8.11386391992E+00 -8.11721926519E+00 -8.11593303629E+00 -8.10947579522E+00
 -8.09729747853E+00 -8.07883171254E+00 -8.05350117174E+00 -8.02072414565E+00
 -7.97992253914E+00 -7.93053159881E+00 -7.87201171741E+00 -7.80386269552E+00
 -7.72564080765E+00 -7.63697890114E+00 -7.53760953460E+00 -7.42739083278E+00
 -7.30633430823E+00 -7.17463339989E+00 -7.03269093976E+00 -6.88114322359E+00
 -6.72087788525E+00 -6.55304242547E+00 -6.37904011094E+00 -6.20051014365E+00
 -6.01928961257E+00 -5.83735588036E+00 -5.65674978084E+00 -5.47948228011E+00
 -5.30742993208E+00 -5.14222722776E+00 -4.98516632655E+00 -4.83711607757E+00
 -4.69847207966E+00 -4.56914731384E+00 -4.44860845922E+00 -4.33595671492E+00
 -4.23004472094E+00 -4.12961443565E+00 -4.03343626533E+00 -3.94042882299E+00
 -3.84974215736E+00 -3.76079472565E+00 -3.67326411447E+00 -3.58704097505E+00
 -3.50216216030E+00 -3.41874083796E+00 -3.33690823301E+00 -3.25677517097E+00
 -3.17841435516E+00 -3.10185881900E+00 -3.02710961299E+00 -2.95414635864E+00
 -2.88293657189E+00 -2.81344213954E+00 -2.74562304938E+00 -2.67943920883E+00
 -2.61485113754E+00 -2.55182029098E+00 -2.49030903391E+00 -2.43028066400E+00
 -2.37169938362E+00 -2.31453027304E+00 -2.25873926529E+00 -2.20429312256E+00
 -2.15115941399E+00 -2.09930649453E+00 -2.04870348478E+00 -1.99932025172E+00
 -1.95112739005E+00 -1.90409620423E+00 -1.85819869106E+00 -1.81340752279E+00
 -1.76969603070E+00 -1.72703818909E+00 -1.68540859974E+00 -1.64478247672E+00
 -1.60513563164E+00 -1.56644445916E+00 -1.52868592302E+00 -1.49183754223E+00
 -1.45587737772E+00 -1.42078401925E+00 -1.38653657273E+00 -1.35311464766E+00
 -1.32049834512E+00 -1.28866824580E+00 -1.25760539854E+00 -1.22729130897E+00
 -1.19770792856E+00 -1.16883764382E+00 -1.14066326583E+00 -1.11316802003E+00
 -1.08633553620E+00 -1.06014983873E+00 -1.03459533710E+00 -1.00965681660E+00
 -9.85319429252E-01 -9.61568685008E-01 -9.38390443086E-01 -9.15770903566E-01
 -8.93696599166E-01 -8.72154387229E-01 -8.51131441895E-01 -8.30615246462E-01
 -8.10593585936E-01 -7.91054539759E-01 -7.71986474709E-01 -7.53378037975E-01
 -7.35218150399E-01 -7.17495999879E-01 -7.00201034932E-01 -6.83322958413E-01
 -6.66851721385E-01 -6.50777517134E-01 -6.35090775334E-01 -6.19782156348E-01
 -6.04842545667E-01 -5.90263048486E-01 -5.76034984404E-01 -5.62149882262E-01
 -5.48599475093E-01 -5.35375695205E-01 -5.22470669378E-01 -5.09876714169E-01
 -4.97586331348E-01 -4.85592203424E-01 -4.73887189294E-01 -4.62464319988E-01
 -4.51316794522E-01 -4.40437975847E-01 -4.29821386896E-01 -4.19460706731E-01
 -4.09349766777E-01 -3.99482547148E-01 -3.89853173068E-01 -3.80455911366E-01
 -3.71285167068E-01 -3.62335480064E-01 -3.53601521856E-01 -3.45078092387E-01
 -3.36760116946E-01 -3.28642643144E-01 -3.20720837967E-01 -3.12989984897E-01
 -3.05445481108E-01 -2.98082834722E-01 -2.90897662133E-01 -2.83885685404E-01
 -2.77042729712E-01 -2.70364720868E-01 -2.63847682891E-01 -2.57487735637E-01
 -2.51281092492E-01 -2.45224058118E-01 -2.39313026250E-01 -2.33544477274E-01
 -2.27914977083E-01 -2.22421174083E-01 -2.17059797095E-01 -2.11827654040E-01
 -2.06721629784E-01 -2.01738684283E-01 -1.96875850769E-01 -1.92130233989E-01
 -1.87499008480E-01 -1.82979416883E-01 -1.78568768305E-01 -1.74264436718E-01
 -1.70063859392E-01 -1.65964535368E-01 -1.61964023976E-01 -1.58059943374E-01
 -1.54249969137E-01 -1.50531832865E-01 -1.46903320840E-01 -1.43362272704E-01
 -1.39906580174E-01 -1.36534185785E-01 -1.33243081668E-01 -1.30031308352E-01
 -1.26896953598E-01 -1.23838151262E-01 -1.20853080181E-01 -1.17939963093E-01
 -1.15097065573E-01 -1.12322695006E-01 -1.09615199577E-01 -1.06972967285E-01
 -1.04394424988E-01 -1.01878037462E-01 -9.94223064921E-02 -9.70257699738E-02
 -9.46870010479E-02 -9.24046072488E-02 -9.01772296758E-02 -8.80035421839E-02
 -8.58822505942E-02 -8.38120919237E-02 -8.17918336330E-02 -7.98202728925E-02
 -7.78962358666E-02
</PP_LOCAL>


<PP_NONLOCAL>
  <PP_BETA>
    1    0             Beta    L
   370
  3.42857541005E-03  3.51326653129E-03  3.60004985697E-03  3.68897708552E-03
  3.78010120356E-03  3.87347650140E-03  3.96915860706E-03  4.06720452688E-03
  4.16767267655E-03  4.27062291652E-03  4.37611658774E-03  4.48421654844E-03
  4.59498721163E-03  4.70849458376E-03  4.82480630415E-03  4.94399168549E-03
  5.06612175540E-03  5.19126929890E-03  5.31950890205E-03  5.45091699664E-03
  5.58557190599E-03  5.72355389189E-03  5.86494520277E-03  6.00983012299E-03
  6.15829502341E-03  6.31042841325E-03  6.46632099323E-03  6.62606570998E-03
  6.78975781193E-03  6.95749490651E-03  7.12937701885E-03  7.30550665191E-03
  7.48598884813E-03  7.67093125266E-03  7.86044417817E-03  8.05464067127E-03
  8.25363658062E-03  8.45755062678E-03  8.66650447381E-03  8.88062280267E-03
  9.10003338647E-03  9.32486716768E-03  9.55525833723E-03  9.79134441565E-03
  1.00332663363E-02  1.02811685306E-02  1.05351990158E-02  1.07955094841E-02
  1.10622553953E-02  1.13355960709E-02  1.16156947908E-02  1.19027188926E-02
  1.21968398733E-02  1.24982334942E-02  1.28070798871E-02  1.31235636650E-02
  1.34478740344E-02  1.37802049108E-02  1.41207550377E-02  1.44697281077E-02
  1.48273328878E-02  1.51937833472E-02  1.55692987889E-02  1.59541039842E-02
  1.63484293114E-02  1.67525108978E-02  1.71665907651E-02  1.75909169792E-02
  1.80257438037E-02  1.84713318572E-02  1.89279482757E-02  1.93958668775E-02
  1.98753683350E-02  2.03667403486E-02  2.08702778269E-02  2.13862830715E-02
  2.19150659657E-02  2.24569441698E-02  2.30122433209E-02  2.35812972378E-02
  2.41644481325E-02  2.47620468265E-02  2.53744529734E-02  2.60020352881E-02
  2.66451717814E-02  2.73042500022E-02  2.79796672853E-02  2.86718310069E-02
  2.93811588473E-02  3.01080790608E-02  3.08530307526E-02  3.16164641652E-02
  3.23988409713E-02  3.32006345759E-02  3.40223304274E-02  3.48644263370E-02
  3.57274328076E-02  3.66118733732E-02  3.75182849468E-02  3.84472181796E-02
  3.93992378309E-02  4.03749231487E-02  4.13748682614E-02  4.23996825826E-02
  4.34499912270E-02  4.45264354392E-02  4.56296730368E-02  4.67603788654E-02
  4.79192452696E-02  4.91069825779E-02  5.03243196025E-02  5.15720041562E-02
  5.28508035846E-02  5.41615053166E-02  5.55049174318E-02  5.68818692472E-02
  5.82932119226E-02  5.97398190870E-02  6.12225874845E-02  6.27424376438E-02