<PP_INFO>
Generated using virtual.x code                                                  
Author and generation date: unknown. Refer to original pseudopotential files    
Pseudo = x C_LDA.UPF + (1-x) C_LDA.UPF, with x=0.500                            
</PP_INFO>


<PP_HEADER>
   0                   Version Number
  Xx                   Element
   NC                  Norm - Conserving pseudopotential
    F                  Nonlinear Core Correction
SLA  PZ   NOGX NOGC    PZ   Exchange-Correlation functional
    4.00000000000      Z valence
    0.00000000000      Total energy
    0.00000    0.00000 Suggested cutoff for wfc and rho
    1                  Max angular momentum component
  461                  Number of points in mesh
    3    4             Number of Wavefunctions, Number of Projectors
 Wavefunctions         nl  l   occ
                       1s  0  2.00
                       2s  1  2.00
                       2p  2  2.00
</PP_HEADER>


<PP_MESH>
  <PP_R>
  1.04166666667E-03  1.06739583333E-03  1.09376051042E-03  1.12077639502E-03
  1.14845957198E-03  1.17682652341E-03  1.20589413854E-03  1.23567972376E-03
  1.26620101294E-03  1.29747617796E-03  1.32952383955E-03  1.36236307839E-03
  1.39601344642E-03  1.43049497855E-03  1.46582820452E-03  1.50203416117E-03
  1.53913440495E-03  1.57715102476E-03  1.61610665507E-03  1.65602448945E-03
  1.69692829434E-03  1.73884242321E-03  1.78179183106E-03  1.82580208929E-03
  1.87089940089E-03  1.91711061609E-03  1.96446324831E-03  2.01298549055E-03
  2.06270623216E-03  2.11365507610E-03  2.16586235648E-03  2.21935915668E-03
  2.27417732785E-03  2.33034950785E-03  2.38790914069E-03  2.44689049647E-03
  2.50732869173E-03  2.56925971042E-03  2.63272042526E-03  2.69774861977E-03
  2.76438301068E-03  2.83266327104E-03  2.90263005383E-03  2.97432501616E-03
  3.04779084406E-03  3.12307127791E-03  3.20021113848E-03  3.27925635360E-03
  3.36025398553E-03  3.44325225897E-03  3.52830058977E-03  3.61544961434E-03
  3.70475121981E-03  3.79625857494E-03  3.89002616174E-03  3.98610980794E-03
  4.08456672019E-03  4.18545551818E-03  4.28883626948E-03  4.39477052534E-03
  4.50332135731E-03  4.61455339484E-03  4.72853286369E-03  4.84532762542E-03
  4.96500721777E-03  5.08764289605E-03  5.21330767558E-03  5.34207637517E-03
  5.47402566164E-03  5.60923409548E-03  5.74778217764E-03  5.88975239742E-03
  6.03522928164E-03  6.18429944490E-03  6.33705164119E-03  6.49357681672E-03
  6.65396816410E-03  6.81832117775E-03  6.98673371084E-03  7.15930603350E-03
  7.33614089253E-03  7.51734357257E-03  7.70302195881E-03  7.89328660120E-03
  8.08825078025E-03  8.28803057452E-03  8.49274492971E-03  8.70251572947E-03
  8.91746786799E-03  9.13772932433E-03  9.36343123864E-03  9.59470799024E-03
  9.83169727759E-03  1.00745402004E-02  1.03233813433E-02  1.05783688625E-02
  1.08396545734E-02  1.11073940413E-02  1.13817466742E-02  1.16628758170E-02
  1.19509488497E-02  1.22461372863E-02  1.25486168773E-02  1.28585677141E-02
  1.31761743367E-02  1.35016258428E-02  1.38351160011E-02  1.41768433663E-02
  1.45270113975E-02  1.48858285790E-02  1.52535085449E-02  1.56302702059E-02
  1.60163378800E-02  1.64119414257E-02  1.68173163789E-02  1.72327040934E-02
  1.76583518846E-02  1.80945131761E-02  1.85414476516E-02  1.89994214085E-02
  1.94687071173E-02  1.99495841831E-02  2.04423389125E-02  2.09472646836E-02
  2.14646621213E-02  2.19948392757E-02  2.25381118058E-02  2.30948031674E-02
  2.36652448056E-02  2.42497763523E-02  2.48487458282E-02  2.54625098502E-02
  2.60914338435E-02  2.67358922594E-02  2.73962687982E-02  2.80729566375E-02
  2.87663586665E-02  2.94768877255E-02  3.02049668524E-02  3.09510295336E-02
  3.17155199631E-02  3.24988933062E-02  3.33016159709E-02  3.41241658853E-02
  3.49670327827E-02  3.58307184924E-02  3.67157372392E-02  3.76226159490E-02
  3.85518945629E-02  3.95041263587E-02  4.04798782797E-02  4.14797312732E-02
  4.25042806357E-02  4.35541363674E-02  4.46299235356E-02  4.57322826470E-02
  4.68618700284E-02  4.80193582181E-02  4.92054363660E-02  5.04208106443E-02
  5.16662046672E-02  5.29423599225E-02  5.42500362126E-02  5.55900121070E-02
  5.69630854061E-02  5.83700736156E-02  5.98118144339E-02  6.12891662504E-02
  6.28030086568E-02  6.43542429706E-02  6.59437927720E-02  6.75726044535E-02
  6.92416477835E-02  7.09519164837E-02  7.27044288209E-02  7.45002282127E-02
  7.63403838496E-02  7.82259913307E-02  8.01581733165E-02  8.21380801975E-02
  8.41668907783E-02  8.62458129806E-02  8.83760845612E-02  9.05589738498E-02
  9.27957805039E-02  9.50878362824E-02  9.74365058385E-02  9.98431875328E-02
  1.02309314265E-01  1.04836354327E-01  1.07425812279E-01  1.10079229842E-01
  1.12798186819E-01  1.15584302034E-01  1.18439234294E-01  1.21364683381E-01
  1.24362391061E-01  1.27434142120E-01  1.30581765430E-01  1.33807135036E-01
  1.37112171272E-01  1.40498841902E-01  1.43969163297E-01  1.47525201631E-01
  1.51169074111E-01  1.54902950241E-01  1.58729053112E-01  1.62649660724E-01
  1.66667107344E-01  1.70783784896E-01  1.75002144382E-01  1.79324697349E-01
  1.83754017373E-01  1.88292741602E-01  1.92943572320E-01  1.97709278556E-01
  2.02592697737E-01  2.07596737371E-01  2.12724376784E-01  2.17978668890E-01
  2.23362742012E-01  2.28879801740E-01  2.34533132843E-01  2.40326101224E-01
  2.46262155924E-01  2.52344831175E-01  2.58577748505E-01  2.64964618893E-01
  2.71509244980E-01  2.78215523331E-01  2.85087446757E-01  2.92129106692E-01
  2.99344695628E-01  3.06738509610E-01  3.14314950797E-01  3.22078530082E-01
  3.30033869775E-01  3.38185706358E-01  3.46538893305E-01  3.55098403970E-01
  3.63869334548E-01  3.72856907111E-01  3.82066472717E-01  3.91503514593E-01
  4.01173651403E-01  4.11082640593E-01  4.21236381816E-01  4.31640920446E-01
  4.42302451182E-01  4.53227321726E-01  4.64422036572E-01  4.75893260876E-01
  4.87647824419E-01  4.99692725682E-01  5.12035136007E-01  5.24682403866E-01
  5.37642059242E-01  5.50921818105E-01  5.64529587012E-01  5.78473467811E-01
  5.92761762466E-01  6.07402977999E-01  6.22405831556E-01  6.37779255595E-01
  6.53532403208E-01  6.69674653568E-01  6.86215617511E-01  7.03165143263E-01
  7.20533322302E-01  7.38330495363E-01  7.56567258598E-01  7.75254469886E-01
  7.94403255292E-01  8.14025015697E-01  8.34131433585E-01  8.54734479995E-01
  8.75846421651E-01  8.97479828265E-01  9.19647580023E-01  9.42362875250E-01
  9.65639238269E-01  9.89490527454E-01  1.01393094348E+00  1.03897503779E+00
  1.06463772122E+00  1.09093427293E+00  1.11788034948E+00  1.14549199411E+00
  1.17378564636E+00  1.20277815183E+00  1.23248677218E+00  1.26292919545E+00
  1.29412354658E+00  1.32608839818E+00  1.35884278161E+00  1.39240619832E+00
  1.42679863142E+00  1.46204055761E+00  1.49815295939E+00  1.53515733748E+00
  1.57307572372E+00  1.61193069409E+00  1.65174538224E+00  1.69254349318E+00
  1.73434931746E+00  1.77718774560E+00  1.82108428292E+00  1.86606506471E+00
  1.91215687181E+00  1.95938714654E+00  2.00778400906E+00  2.05737627408E+00
  2.10819346805E+00  2.16026584671E+00  2.21362441313E+00  2.26830093613E+00
  2.32432796925E+00  2.38173887009E+00  2.44056782019E+00  2.50084984534E+00
  2.56262083652E+00  2.62591757119E+00  2.69077773519E+00  2.75723994525E+00
  2.82534377190E+00  2.89512976307E+00  2.96663946822E+00  3.03991546308E+00
  3.11500137502E+00  3.19194190898E+00  3.27078287413E+00  3.35157121112E+00
  3.43435502004E+00  3.51918358903E+00  3.60610742368E+00  3.69517827705E+00
  3.78644918049E+00  3.87997447525E+00  3.97580984479E+00  4.07401234795E+00
  4.17464045295E+00  4.27775407214E+00  4.38341459772E+00  4.49168493828E+00
  4.60262955626E+00  4.71631450630E+00  4.83280747460E+00  4.95217781922E+00
  5.07449661136E+00  5.19983667766E+00  5.32827264360E+00  5.45988097790E+00
  5.59474003805E+00  5.73293011699E+00  5.87453349088E+00  6.01963446810E+00
  6.16831943947E+00  6.32067692962E+00  6.47679764978E+00  6.63677455173E+00
  6.80070288316E+00  6.96868024437E+00  7.14080664641E+00  7.31718457058E+00
  7.49791902947E+00  7.68311762950E+00  7.87289063495E+00  8.06735103363E+00
  8.26661460416E+00  8.47079998488E+00  8.68002874451E+00  8.89442545450E+00
  9.11411776322E+00  9.33923647198E+00  9.56991561283E+00  9.80629252847E+00
  1.00485079539E+01  1.02967061004E+01  1.05510347411E+01  1.08116452992E+01
  1.10786929381E+01  1.13523366536E+01  1.16327393690E+01  1.19200680314E+01
  1.22144937118E+01  1.25161917064E+01  1.28253416416E+01  1.31421275801E+01
  1.34667381314E+01  1.37993665632E+01  1.41402109173E+01  1.44894741270E+01
  1.48473641379E+01  1.52140940321E+01  1.55898821547E+01  1.59749522439E+01
  1.63695335644E+01  1.67738610434E+01  1.71881754112E+01  1.76127233438E+01
  1.80477576104E+01  1.84935372234E+01  1.89503275928E+01  1.94184006844E+01
  1.98980351813E+01  2.03895166502E+01  2.08931377115E+01  2.14091982130E+01
  2.19380054088E+01  2.24798741424E+01  2.30351270338E+01  2.36040946715E+01
  2.41871158099E+01  2.47845375704E+01  2.53967156484E+01  2.60240145249E+01
  2.66668076837E+01  2.73254778334E+01  2.80004171359E+01  2.86920274392E+01
  2.94007205169E+01  3.01269183137E+01  3.08710531960E+01  3.16335682100E+01
  3.24149173448E+01  3.32155658032E+01  3.40359902785E+01  3.48766792384E+01
  3.57381332156E+01  3.66208651060E+01  3.75254004741E+01  3.84522778659E+01
  3.94020491291E+01  4.03752797426E+01  4.13725491523E+01  4.23944511163E+01
  4.34415940589E+01  4.45146014322E+01  4.56141120875E+01  4.67407806561E+01
  4.78952779383E+01  4.90782913034E+01  5.02905250986E+01  5.15327010685E+01
  5.28055587849E+01  5.41098560869E+01  5.54463695322E+01  5.68158948597E+01
  5.82192474627E+01  5.96572628750E+01  6.11307972681E+01  6.26407279606E+01
  6.41879539412E+01  6.57733964036E+01  6.73979992947E+01  6.90627298773E+01
  7.07685793053E+01  7.25165632141E+01  7.43077223255E+01  7.61431230669E+01
  7.80238582067E+01
  </PP_R>
  <PP_RAB>
  2.54165487745E-05  2.60443375292E-05  2.66876326662E-05  2.73468171931E-05
  2.80222835777E-05  2.87144339821E-05  2.94236805015E-05  3.01504454099E-05
  3.08951614115E-05  3.16582718983E-05  3.24402312142E-05  3.32415049252E-05
  3.40625700969E-05  3.49039155783E-05  3.57660422931E-05  3.66494635377E-05
  3.75547052871E-05  3.84823065077E-05  3.94328194784E-05  4.04068101195E-05
  4.14048583295E-05  4.24275583302E-05  4.34755190210E-05  4.45493643408E-05
  4.56497336400E-05  4.67772820609E-05  4.79326809278E-05  4.91166181467E-05
  5.03297986150E-05  5.15729446407E-05  5.28467963734E-05  5.41521122438E-05
  5.54896694162E-05  5.68602642508E-05  5.82647127778E-05  5.97038511834E-05
  6.11785363076E-05  6.26896461544E-05  6.42380804144E-05  6.58247610007E-05
  6.74506325974E-05  6.91166632226E-05  7.08238448042E-05  7.25731937708E-05
  7.43657516570E-05  7.62025857229E-05  7.80847895902E-05  8.00134838931E-05
  8.19898169453E-05  8.40149654238E-05  8.60901350698E-05  8.82165614060E-05
  9.03955104727E-05  9.26282795814E-05  9.49161980871E-05  9.72606281798E-05
  9.96629656959E-05  1.02124640949E-04  1.04647119580E-04  1.07231903434E-04
  1.09880531448E-04  1.12594580575E-04  1.15375666715E-04  1.18225445683E-04
  1.21145614192E-04  1.24137910862E-04  1.27204117260E-04  1.30346058957E-04
  1.33565606613E-04  1.36864677096E-04  1.40245234621E-04  1.43709291916E-04
  1.47258911426E-04  1.50896206538E-04  1.54623342840E-04  1.58442539408E-04
  1.62356070131E-04  1.66366265064E-04  1.70475511811E-04  1.74686256952E-04
  1.79001007499E-04  1.83422332384E-04  1.87952863994E-04  1.92595299735E-04
  1.97352403638E-04  2.02227008008E-04  2.07222015106E-04  2.12340398879E-04
  2.17585206731E-04  2.22959561338E-04  2.28466662503E-04  2.34109789067E-04
  2.39892300857E-04  2.45817640688E-04  2.51889336413E-04  2.58111003022E-04
  2.64486344797E-04  2.71019157513E-04  2.77713330704E-04  2.84572849972E-04
  2.91601799366E-04  2.98804363811E-04  3.06184831597E-04  3.13747596937E-04
  3.21497162582E-04  3.29438142498E-04  3.37575264617E-04  3.45913373653E-04
  3.54457433983E-04  3.63212532602E-04  3.72183882157E-04  3.81376824046E-04
  3.90796831600E-04  4.00449513341E-04  4.10340616320E-04  4.20476029544E-04
  4.30861787473E-04  4.41504073624E-04  4.52409224242E-04  4.63583732081E-04
  4.75034250264E-04  4.86767596245E-04  4.98790755872E-04  5.11110887542E-04
  5.23735326465E-04  5.36671589028E-04  5.49927377277E-04  5.63510583496E-04
  5.77429294908E-04  5.91691798493E-04  6.06306585915E-04  6.21282358588E-04
  6.36628032845E-04  6.52352745256E-04  6.68465858064E-04  6.84976964758E-04
  7.01895895787E-04  7.19232724413E-04  7.36997772706E-04  7.55201617692E-04
  7.73855097649E-04  7.92969318561E-04  8.12555660730E-04  8.32625785550E-04
  8.53191642453E-04  8.74265476021E-04  8.95859833279E-04  9.17987571161E-04
  9.40661864169E-04  9.63896212214E-04  9.87704448655E-04  1.01210074854E-03
  1.03709963703E-03  1.06271599806E-03  1.08896508321E-03  1.11586252077E-03
  1.14342432503E-03  1.17166690586E-03  1.20060707843E-03  1.23026207327E-03
  1.26064954648E-03  1.29178759028E-03  1.32369474376E-03  1.35639000393E-03
  1.38989283703E-03  1.42422319010E-03  1.45940150290E-03  1.49544872002E-03
  1.53238630340E-03  1.57023624510E-03  1.60902108035E-03  1.64876390104E-03
  1.68948836939E-03  1.73121873212E-03  1.77397983480E-03  1.81779713672E-03
  1.86269672600E-03  1.90870533513E-03  1.95585035690E-03  2.00415986072E-03
  2.05366260928E-03  2.10438807573E-03  2.15636646120E-03  2.20962871279E-03
  2.26420654200E-03  2.32013244358E-03  2.37743971494E-03  2.43616247590E-03
  2.49633568906E-03  2.55799518057E-03  2.62117766153E-03  2.68592074977E-03
  2.75226299229E-03  2.82024388820E-03  2.88990391224E-03  2.96128453887E-03
  3.03442826699E-03  3.10937864518E-03  3.18618029772E-03  3.26487895107E-03
  3.34552146116E-03  3.42815584125E-03  3.51283129053E-03  3.59959822341E-03
  3.68850829952E-03  3.77961445452E-03  3.87297093155E-03  3.96863331356E-03
  4.06665855640E-03  4.16710502275E-03  4.27003251681E-03  4.37550231997E-03
  4.48357722728E-03  4.59432158479E-03  4.70780132794E-03  4.82408402074E-03
  4.94323889605E-03  5.06533689678E-03  5.19045071813E-03  5.31865485087E-03
  5.45002562568E-03  5.58464125864E-03  5.72258189773E-03  5.86392967060E-03
  6.00876873346E-03  6.15718532118E-03  6.30926779861E-03  6.46510671324E-03
  6.62479484906E-03  6.78842728183E-03  6.95610143569E-03  7.12791714115E-03
  7.30397669454E-03  7.48438491889E-03  7.66924922639E-03  7.85867968228E-03
  8.05278907043E-03  8.25169296047E-03  8.45550977660E-03  8.66436086808E-03
  8.87837058152E-03  9.09766633488E-03  9.32237869336E-03  9.55264144708E-03
  9.78859169083E-03  1.00303699056E-02  1.02781200423E-02  1.05319896073E-02
  1.07921297506E-02  1.10586953554E-02  1.13318451307E-02  1.16117417054E-02
  1.18985517256E-02  1.21924459532E-02  1.24935993682E-02  1.28021912726E-02
  1.31184053971E-02  1.34424300104E-02  1.37744580316E-02  1.41146871450E-02
  1.44633199175E-02  1.48205639195E-02  1.51866318483E-02  1.55617416549E-02
  1.59461166738E-02  1.63399857556E-02  1.67435834038E-02  1.71571499139E-02
  1.75809315168E-02  1.80151805252E-02  1.84601554842E-02  1.89161213246E-02
  1.93833495214E-02  1.98621182545E-02  2.03527125754E-02  2.08554245760E-02
  2.13705535631E-02  2.18984062361E-02  2.24392968701E-02  2.29935475028E-02
  2.35614881261E-02  2.41434568828E-02  2.47398002678E-02  2.53508733345E-02
  2.59770399058E-02  2.66186727915E-02  2.72761540094E-02  2.79498750135E-02
  2.86402369263E-02  2.93476507784E-02  3.00725377526E-02  3.08153294351E-02
  3.15764680722E-02  3.23564068335E-02  3.31556100823E-02  3.39745536514E-02
  3.48137251265E-02  3.56736241372E-02  3.65547626534E-02  3.74576652909E-02
  3.83828696236E-02  3.93309265033E-02  4.03024003879E-02  4.12978696775E-02
  4.23179270585E-02  4.33631798569E-02  4.44342503993E-02  4.55317763842E-02
  4.66564112609E-02  4.78088246190E-02  4.89897025871E-02  5.01997482410E-02
  5.14396820226E-02  5.27102421685E-02  5.40121851501E-02  5.53462861233E-02
  5.67133393906E-02  5.81141588735E-02  5.95495785977E-02  6.10204531890E-02
  6.25276583828E-02  6.40720915449E-02  6.56546722060E-02  6.72763426095E-02
  6.89380682720E-02  7.06408385583E-02  7.23856672707E-02  7.41735932523E-02
  7.60056810056E-02  7.78830213264E-02  7.98067319532E-02  8.17779582324E-02
  8.37978738008E-02  8.58676812837E-02  8.79886130114E-02  9.01619317527E-02
  9.23889314670E-02  9.46709380743E-02  9.70093102447E-02  9.94054402078E-02
  1.01860754581E-01  1.04376715219E-01  1.06954820085E-01  1.09596604141E-01
  1.12303640263E-01  1.15077540178E-01  1.17919955420E-01  1.20832578319E-01
  1.23817143004E-01  1.26875426436E-01  1.30009249469E-01  1.33220477931E-01
  1.36511023736E-01  1.39882846022E-01  1.43337952319E-01  1.46878399741E-01
  1.50506296214E-01  1.54223801731E-01  1.58033129634E-01  1.61936547936E-01
  1.65936380670E-01  1.70035009272E-01  1.74234874001E-01  1.78538475389E-01
  1.82948375731E-01  1.87467200612E-01  1.92097640467E-01  1.96842452186E-01
  2.01704460755E-01  2.06686560936E-01  2.11791718991E-01  2.17022974450E-01
  2.22383441919E-01  2.27876312934E-01  2.33504857864E-01  2.39272427853E-01
  2.45182456821E-01  2.51238463505E-01  2.57444053553E-01  2.63802921676E-01
  2.70318853841E-01  2.76995729531E-01  2.83837524051E-01  2.90848310895E-01
  2.98032264174E-01  3.05393661099E-01  3.12936884528E-01  3.20666425576E-01
  3.28586886288E-01  3.36702982379E-01  3.45019546044E-01  3.53541528831E-01
  3.62274004593E-01  3.71222172506E-01  3.80391360167E-01  3.89787026764E-01
  3.99414766325E-01  4.09280311053E-01  4.19389534736E-01  4.29748456244E-01
  4.40363243113E-01  4.51240215218E-01  4.62385848534E-01  4.73806778993E-01
  4.85509806434E-01  4.97501898653E-01  5.09790195549E-01  5.22382013379E-01
  5.35284849110E-01  5.48506384883E-01  5.62054492589E-01  5.75937238556E-01
  5.90162888349E-01  6.04739911691E-01  6.19676987510E-01  6.34983009101E-01
  6.50667089426E-01  6.66738566535E-01  6.83207009128E-01  7.00082222254E-01
  7.17374253143E-01  7.35093397196E-01  7.53250204107E-01  7.71855484148E-01
  7.90920314607E-01  8.10456046378E-01  8.30474310723E-01  8.50987026198E-01
  8.72006405745E-01  8.93544963967E-01  9.15615524577E-01  9.38231228034E-01
  9.61405539366E-01  9.85152256189E-01  1.00948551692E+00  1.03441980918E+00
  1.05996997847E+00  1.08615123694E+00  1.11297917249E+00  1.14046975805E+00
  1.16863936108E+00  1.19750475329E+00  1.22708312070E+00  1.25739207378E+00
  1.28844965801E+00  1.32027436456E+00  1.35288514136E+00  1.38630140435E+00
  1.42054304904E+00  1.45563046235E+00  1.49158453477E+00  1.52842667278E+00
  1.56617881160E+00  1.60486342825E+00  1.64450355492E+00  1.68512279273E+00
  1.72674532571E+00  1.76939593526E+00  1.81310001486E+00  1.85788358522E+00
  1.90377330978E+00
  </PP_RAB>
</PP_MESH>


<PP_LOCAL>
 -1.16848195278E+01 -1.16848243735E+01 -1.16848293965E+01 -1.16848346033E+01
 -1.16848400129E+01 -1.16848456163E+01 -1.16848514211E+01 -1.16848574348E+01
 -1.16848636649E+01 -1.16848701196E+01 -1.16848768071E+01 -1.16848837359E+01
 -1.16848909149E+01 -1.16848983534E+01 -1.16849060607E+01 -1.16849140467E+01
 -1.16849223217E+01 -1.16849308962E+01 -1.16849397812E+01 -1.16849489878E+01
 -1.16849585280E+01 -1.16849684139E+01 -1.16849786581E+01 -1.16849892735E+01
 -1.16850002739E+01 -1.16850116732E+01 -1.16850234859E+01 -1.16850357270E+01
 -1.16850484123E+01 -1.16850615579E+01 -1.16850751805E+01 -1.16850892975E+01
 -1.16851039270E+01 -1.16851190875E+01 -1.16851347985E+01 -1.16851510800E+01
 -1.16851679527E+01 -1.16851854383E+01 -1.16852035590E+01 -1.16852223381E+01
 -1.16852417995E+01 -1.16852619681E+01 -1.16852828698E+01 -1.16853045311E+01
 -1.16853269800E+01 -1.16853502452E+01 -1.16853743564E+01 -1.16853993446E+01
 -1.16854252418E+01 -1.16854520813E+01 -1.16854798976E+01 -1.16855087265E+01
 -1.16855386049E+01 -1.16855695714E+01 -1.16856016659E+01 -1.16856349297E+01
 -1.16856694057E+01 -1.16857051386E+01 -1.16857421744E+01 -1.16857805612E+01
 -1.16858203486E+01 -1.16858615882E+01 -1.16859043336E+01 -1.16859486403E+01
 -1.16859945661E+01 -1.16860421706E+01 -1.16860915160E+01 -1.16861426669E+01
 -1.16861956901E+01 -1.16862506550E+01 -1.16863076339E+01 -1.16863667016E+01
 -1.16864279359E+01 -1.16864914176E+01 -1.16865572304E+01 -1.16866254615E+01
 -1.16866962015E+01 -1.16867695442E+01 -1.16868455875E+01 -1.16869244326E+01
 -1.16870061851E+01 -1.16870909545E+01 -1.16871788547E+01 -1.16872700041E+01
 -1.16873645257E+01 -1.16874625474E+01 -1.16875642023E+01 -1.16876696286E+01
 -1.16877789702E+01 -1.16878923768E+01 -1.16880100039E+01 -1.16881320135E+01
 -1.16882585741E+01 -1.16883898609E+01 -1.16885260565E+01 -1.16886673507E+01
 -1.16888139413E+01 -1.16889660342E+01 -1.16891238436E+01 -1.16892875930E+01
 -1.16894575147E+01 -1.16896338510E+01 -1.16898168544E+01 -1.16900067878E+01
 -1.16902039253E+01 -1.16904085527E+01 -1.16906209678E+01 -1.16908414812E+01
 -1.16910704168E+01 -1.16913081123E+01 -1.16915549201E+01 -1.16918112080E+01
 -1.16920773595E+01 -1.16923537750E+01 -1.16926408726E+01 -1.16929390884E+01
 -1.16932488781E+01 -1.16935707176E+01 -1.16939051038E+01 -1.16942525559E+01
 -1.16946136164E+01 -1.16949888523E+01 -1.16953788561E+01 -1.16957842473E+01
 -1.16962056735E+01 -1.16966438122E+01 -1.16970993718E+01 -1.16975730932E+01
 -1.16980657520E+01 -1.16985781594E+01 -1.16991111647E+01 -1.16996656568E+01
 -1.17002425665E+01 -1.17008428683E+01 -1.17014675829E+01 -1.17021177795E+01
 -1.17027945782E+01 -1.17034991527E+01 -1.17042327328E+01 -1.17049966080E+01
 -1.17057921296E+01 -1.17066207147E+01 -1.17074838492E+01 -1.17083830917E+01
 -1.17093200768E+01 -1.17102965195E+01 -1.17113142194E+01 -1.17123750648E+01
 -1.17134810377E+01 -1.17146342185E+01 -1.17158367913E+01 -1.17170910492E+01
 -1.17183994004E+01 -1.17197643739E+01 -1.17211886260E+01 -1.17226749470E+01
 -1.17242262686E+01 -1.17258456708E+01 -1.17275363901E+01 -1.17293018277E+01
 -1.17311455584E+01 -1.17330713393E+01 -1.17350831198E+01 -1.17371850514E+01
 -1.17393814987E+01 -1.17416770502E+01 -1.17440765303E+01 -1.17465850114E+01
 -1.17492078267E+01 -1.17519505841E+01 -1.17548191797E+01 -1.17578198133E+01
 -1.17609590033E+01 -1.17642436032E+01 -1.17676808180E+01 -1.17712782223E+01
 -1.17750437780E+01 -1.17789858537E+01 -1.17831132440E+01 -1.17874351901E+01
 -1.17919614007E+01 -1.17967020736E+01 -1.18016679182E+01 -1.18068701783E+01
 -1.18123206556E+01 -1.18180317331E+01 -1.18240163999E+01 -1.18302882754E+01
 -1.18368616336E+01 -1.18437514282E+01 -1.18509733168E+01 -1.18585436849E+01
 -1.18664796692E+01 -1.18747991804E+01 -1.18835209244E+01 -1.18926644221E+01
 -1.19022500273E+01 -1.19122989424E+01 -1.19228332307E+01 -1.19338758255E+01
 -1.19454505353E+01 -1.19575820436E+01 -1.19702959031E+01 -1.19836185233E+01
 -1.19975771503E+01 -1.20121998377E+01 -1.20275154066E+01 -1.20435533945E+01
 -1.20603439905E+01 -1.20779179544E+01 -1.20963065192E+01 -1.21155412733E+01
 -1.21356540200E+01 -1.21566766121E+01 -1.21786407575E+01 -1.22015777929E+01
 -1.22255184215E+01 -1.22504924100E+01 -1.22765282409E+01 -1.23036527147E+01
 -1.23318904955E+01 -1.23612635953E+01 -1.23917907894E+01 -1.24234869563E+01
 -1.24563623341E+01 -1.24904216859E+01 -1.25256633651E+01 -1.25620782730E+01
 -1.25996486981E+01 -1.26383470295E+01 -1.26781343350E+01 -1.27189587948E+01
 -1.27607539841E+01 -1.28034369971E+01 -1.28469064072E+01 -1.28910400619E+01
 -1.29356927101E+01 -1.29806934689E+01 -1.30258431364E+01 -1.30709113664E+01
 -1.31156337269E+01 -1.31597086740E+01 -1.32027944809E+01 -1.32445061760E+01
 -1.32844125544E+01 -1.33220333437E+01 -1.33568366185E+01 -1.33882365758E+01
 -1.34155917985E+01 -1.34382041529E+01 -1.34553184827E+01 -1.34661232828E+01
 -1.34697525542E+01 -1.34652890701E+01 -1.34517693134E+01 -1.34281903829E+01
 -1.33935192157E+01 -1.33467045223E+01 -1.32866918811E+01 -1.32124424714E+01
 -1.31229559217E+01 -1.30172976906E+01 -1.28946312546E+01 -1.27542551328E+01
 -1.25956444178E+01 -1.24184959993E+01 -1.22227760688E+01 -1.20087677993E+01
 -1.17771163300E+01 -1.15288674069E+01 -1.12654953082E+01 -1.09889151237E+01
 -1.07014742090E+01 -1.04059178751E+01 -1.01053252921E+01 -9.80301337524E+00
 -9.50240917606E+00 -9.20689500822E+00 -8.91963494003E+00 -8.64339588861E+00
 -8.38038056068E+00 -8.13209191822E+00 -7.89924867173E+00 -7.68176771511E+00
 -7.47882214776E+00 -7.28897314163E+00 -7.11036193335E+00 -6.94093703779E+00
 -6.77868417152E+00 -6.62182478784E+00 -6.46895478504E+00 -6.31910718092E+00
 -6.17173859100E+00 -6.02665496705E+00 -5.88390283260E+00 -5.74365523208E+00
 -5.60611650044E+00 -5.47145931386E+00 -5.33979558949E+00 -5.21117378508E+00
 -5.08559125012E+00 -4.96301123065E+00 -4.84337785776E+00 -4.72662651044E+00
 -4.61268974023E+00 -4.50150012775E+00 -4.39299134686E+00 -4.28709865975E+00
 -4.18375885837E+00 -4.08291029791E+00 -3.98449284910E+00 -3.88844785401E+00
 -3.79471808477E+00 -3.70324770474E+00 -3.61398223170E+00 -3.52686850278E+00
 -3.44185464097E+00 -3.35889002273E+00 -3.27792524697E+00 -3.19891210484E+00
 -3.12180355060E+00 -3.04655367321E+00 -2.97311766879E+00 -2.90145181376E+00
 -2.83151343871E+00 -2.76326090289E+00 -2.69665356943E+00 -2.63165178105E+00
 -2.56821683644E+00 -2.50631096725E+00 -2.44589731552E+00 -2.38693991178E+00
 -2.32940365360E+00 -2.27325428473E+00 -2.21845837465E+00 -2.16498329867E+00
 -2.11279721857E+00 -2.06186906354E+00 -2.01216851175E+00 -1.96366597230E+00
 -1.91633256753E+00 -1.87014011592E+00 -1.82506111523E+00 -1.78106872616E+00
 -1.73813675638E+00 -1.69623964490E+00 -1.65535244688E+00 -1.61545081877E+00
 -1.57651100381E+00 -1.53850981786E+00 -1.50142463567E+00 -1.46523337732E+00
 -1.42991449514E+00 -1.39544696083E+00 -1.36181025300E+00 -1.32898434489E+00
 -1.29694969248E+00 -1.26568722286E+00 -1.23517832284E+00 -1.20540482792E+00
 -1.17634901143E+00 -1.14799357400E+00 -1.12032163324E+00 -1.09331671372E+00
 -1.06696273715E+00 -1.04124401279E+00 -1.01614522811E+00 -9.91651439722E-01
 -9.67748064407E-01 -9.44420870492E-01 -9.21655969348E-01 -8.99439807133E-01
 -8.77759156716E-01 -8.56601109802E-01 -8.35953069249E-01 -8.15802741567E-01
 -7.96138129594E-01 -7.76947525361E-01 -7.58219503112E-01 -7.39942912507E-01
 -7.22106871979E-01 -7.04700762260E-01 -6.87714220051E-01 -6.71137131859E-01
 -6.54959627969E-01 -6.39172076573E-01 -6.23765078030E-01 -6.08729459274E-01
 -5.94056268351E-01 -5.79736769088E-01 -5.65762435891E-01 -5.52124948673E-01
 -5.38816187897E-01 -5.25828229743E-01 -5.13153341389E-01 -5.00783976411E-01
 -4.88712770284E-01 -4.76932536005E-01 -4.65436259807E-01 -4.54217096988E-01
 -4.43268367834E-01 -4.32583553642E-01 -4.22156292841E-01 -4.11980377201E-01
 -4.02049748140E-01 -3.92358493116E-01 -3.82900842106E-01 -3.73671164171E-01
 -3.64663964105E-01 -3.55873878533E-01 -3.47295675352E-01 -3.38924246464E-01
 -3.30754607655E-01 -3.22781894852E-01 -3.15001361230E-01 -3.07408374382E-01
 -2.99998413567E-01 -2.92767067012E-01 -2.85710029289E-01 -2.78823098750E-01
 -2.72102175026E-01 -2.65543256589E-01 -2.59142438361E-01 -2.52895909399E-01
 -2.46799950619E-01 -2.40850932584E-01 -2.35045313344E-01 -2.29379636327E-01
 -2.23850528279E-01 -2.18454697256E-01 -2.13188930669E-01 -2.08050093363E-01
 -2.03035125757E-01 -1.98141042019E-01 -1.93364928290E-01 -1.88703940948E-01
 -1.84155304917E-01 -1.79716312010E-01 -1.75384319323E-01 -1.71156747656E-01
 -1.67031079980E-01 -1.63004859940E-01 -1.59075690387E-01 -1.55241231958E-01
 -1.51499201677E-01 -1.47847371598E-01 -1.44283567481E-01 -1.40805667494E-01
 -1.37411600951E-01 -1.34099347078E-01 -1.30866933813E-01 -1.27712436628E-01
 -1.24633977387E-01 -1.21629723223E-01 -1.18697885452E-01 -1.15836718505E-01
 -1.13044518889E-01 -1.10319624172E-01 -1.07660411995E-01 -1.05065299107E-01
 -1.02532740419E-01
</PP_LOCAL>


<PP_NONLOCAL>
  <PP_BETA>
    1    0             Beta    L
   377
  6.56434474163E-03  6.72649401386E-03  6.89264899910E-03  7.06290867782E-03
  7.23737449836E-03  7.41615040771E-03  7.59934290929E-03  7.78706114640E-03
  7.97941696054E-03  8.17652495922E-03  8.37850258451E-03  8.58547018327E-03
  8.79755107922E-03  9.01487164668E-03  9.23756138621E-03  9.46575300218E-03
  9.69958248217E-03  9.93918917845E-03  1.01847158914E-02  1.04363089553E-02
  1.06941183255E-02  1.09582976690E-02  1.12290044561E-02  1.15064000549E-02
  1.17906498284E-02  1.20819232334E-02  1.23803939223E-02  1.26862398477E-02
  1.29996433686E-02  1.33207913609E-02  1.36498753288E-02  1.39870915206E-02
  1.43326410464E-02  1.46867299993E-02  1.50495695794E-02  1.54213762211E-02
  1.58023717230E-02  1.61927833826E-02  1.65928441321E-02  1.70027926802E-02
  1.74228736551E-02  1.78533377532E-02  1.82944418897E-02  1.87464493545E-02
  1.92096299716E-02  1.96842602620E-02  2.01706236112E-02  2.06690104414E-02
  2.11797183873E-02  2.17030524768E-02  2.22393253165E-02  2.27888572811E-02
  2.33519767092E-02  2.39290201022E-02  2.45203323303E-02  2.51262668420E-02
  2.57471858804E-02  2.63834607041E-02  2.70354718146E-02  2.77036091890E-02
  2.83882725191E-02  2.90898714565E-02  2.98088258644E-02  3.05455660754E-02
  3.13005331566E-02  3.20741791817E-02  3.28669675095E-02  3.36793730710E-02
  3.45118826623E-02  3.53649952472E-02  3.62392222665E-02  3.71350879559E-02
  3.80531296727E-02  3.89938982303E-02  3.99579582432E-02  4.09458884796E-02
  4.19582822248E-02  4.29957476535E-02  4.40589082130E-02  4.51484030160E-02
  4.62648872452E-02  4.74090325678E-02  4.85815275620E-02  4.97830781554E-02
  5.10144080755E-02  5.22762593121E-02  5.35693925936E-02  5.48945878756E-02
  5.62526448444E-02  5.76443834337E-02  5.90706443563E-02  6.05322896513E-02
  6.20302032468E-02  6.35652915383E-02  6.51384839844E-02  6.67507337199E-02
  6.84030181861E-02  7.00963397804E-02  7.18317265246E-02  7.36102327532E-02
  7.54329398218E-02  7.73009568381E-02  7.92154214128E-02  8.11775004357E-02
  8.31883908733E-02  8.52493205928E-02  8.73615492102E-02  8.95263689656E-02
  9.17451056255E-02  9.40191194137E-02  9.63498059721E-02  9.87385973516E-02
  1.01186963035E-01  1.03696410994E-01  1.06268488780E-01  1.08904784649E-01