<PP_INFO>
Generated using Fritz-Haber code                                                
Author: unknown    Generation date: as well                                     
Info: automatically converted from FHI format                                   
    1        The Pseudo was generated with a Scalar-Relativistic Calculation
nl pn  l   occ               Rcut            Rcut US             E pseu
3s  0  0  2.00      0.00000000000      0.00000000000      0.00000000000
3p  0  1  1.00      0.00000000000      0.00000000000      0.00000000000
3d  0  2  0.00      0.00000000000      0.00000000000      0.00000000000
</PP_INFO>


<PP_HEADER>
   0                   Version Number
  Al                   Element
   NC                  Norm - Conserving pseudopotential
    F                  Nonlinear Core Correction
SLA  PW   PBE  PBE     PBE  Exchange-Correlation functional
    3.00000000000      Z valence
    0.00000000000      Total energy
  0.0000000  0.0000000 Suggested cutoff for wfc and rho
    1                  Max angular momentum component
  493                  Number of points in mesh
    3    2             Number of Wavefunctions, Number of Projectors
 Wavefunctions         nl  l   occ
                       3s  0  2.00
                       3p  1  1.00
                       3d  2  0.00
</PP_HEADER>


<PP_MESH>
  <PP_R>
  4.80769230769E-04  4.92644230769E-04  5.04812543269E-04  5.17281413088E-04
  5.30058263991E-04  5.43150703112E-04  5.56566525479E-04  5.70313718658E-04
  5.84400467509E-04  5.98835159056E-04  6.13626387485E-04  6.28782959256E-04
  6.44313898350E-04  6.60228451639E-04  6.76536094394E-04  6.93246535926E-04
  7.10369725363E-04  7.27915857580E-04  7.45895379262E-04  7.64318995130E-04
  7.83197674309E-04  8.02542656865E-04  8.22365460489E-04  8.42677887363E-04
  8.63492031181E-04  8.84820284351E-04  9.06675345375E-04  9.29070226406E-04
  9.52018260998E-04  9.75533112045E-04  9.99628779912E-04  1.02431961078E-03
  1.04962030516E-03  1.07554592670E-03  1.10211191109E-03  1.12933407529E-03
  1.15722862695E-03  1.18581217404E-03  1.21510173474E-03  1.24511474759E-03
  1.27586908185E-03  1.30738304817E-03  1.33967540946E-03  1.37276539208E-03
  1.40667269726E-03  1.44141751288E-03  1.47702052545E-03  1.51350293243E-03
  1.55088645486E-03  1.58919335030E-03  1.62844642605E-03  1.66866905277E-03
  1.70988517837E-03  1.75211934228E-03  1.79539669003E-03  1.83974298828E-03
  1.88518464009E-03  1.93174870070E-03  1.97946289361E-03  2.02835562708E-03
  2.07845601107E-03  2.12979387454E-03  2.18239978324E-03  2.23630505789E-03
  2.29154179282E-03  2.34814287510E-03  2.40614200412E-03  2.46557371162E-03
  2.52647338229E-03  2.58887727484E-03  2.65282254352E-03  2.71834726035E-03
  2.78549043768E-03  2.85429205149E-03  2.92479306516E-03  2.99703545387E-03
  3.07106222958E-03  3.14691746665E-03  3.22464632808E-03  3.30429509238E-03
  3.38591118117E-03  3.46954318734E-03  3.55524090407E-03  3.64305535440E-03
  3.73303882165E-03  3.82524488055E-03  3.91972842910E-03  4.01654572130E-03
  4.11575440061E-03  4.21741353431E-03  4.32158364860E-03  4.42832676472E-03
  4.53770643581E-03  4.64978778478E-03  4.76463754306E-03  4.88232409037E-03
  5.00291749541E-03  5.12648955754E-03  5.25311384962E-03  5.38286576170E-03
  5.51582254601E-03  5.65206336290E-03  5.79166932796E-03  5.93472356037E-03
  6.08131123231E-03  6.23151961974E-03  6.38543815435E-03  6.54315847676E-03
  6.70477449114E-03  6.87038242107E-03  7.04008086687E-03  7.21397086428E-03
  7.39215594463E-03  7.57474219646E-03  7.76183832872E-03  7.95355573544E-03
  8.15000856210E-03  8.35131377359E-03  8.55759122379E-03  8.76896372702E-03
  8.98555713108E-03  9.20750039222E-03  9.43492565190E-03  9.66796831551E-03
  9.90676713290E-03  1.01514642811E-02  1.04022054488E-02  1.06591399234E-02
  1.09224206795E-02  1.11922044703E-02  1.14686519207E-02  1.17519276232E-02
  1.20422002355E-02  1.23396425813E-02  1.26444317530E-02  1.29567492173E-02
  1.32767809230E-02  1.36047174118E-02  1.39407539319E-02  1.42850905540E-02
  1.46379322907E-02  1.49994892182E-02  1.53699766019E-02  1.57496150240E-02
  1.61386305151E-02  1.65372546888E-02  1.69457248796E-02  1.73642842842E-02
  1.77931821060E-02  1.82326737040E-02  1.86830207445E-02  1.91444913569E-02
  1.96173602934E-02  2.01019090926E-02  2.05984262472E-02  2.11072073755E-02
  2.16285553977E-02  2.21627807160E-02  2.27102013997E-02  2.32711433743E-02
  2.38459406156E-02  2.44349353488E-02  2.50384782519E-02  2.56569286648E-02
  2.62906548028E-02  2.69400339764E-02  2.76054528156E-02  2.82873075002E-02
  2.89860039954E-02  2.97019582941E-02  3.04355966640E-02  3.11873559016E-02
  3.19576835924E-02  3.27470383771E-02  3.35558902250E-02  3.43847207136E-02
  3.52340233152E-02  3.61043036911E-02  3.69960799922E-02  3.79098831681E-02
  3.88462572823E-02  3.98057598372E-02  4.07889621052E-02  4.17964494692E-02
  4.28288217710E-02  4.38866936688E-02  4.49706950024E-02  4.60814711690E-02
  4.72196835068E-02  4.83860096895E-02  4.95811441288E-02  5.08057983888E-02
  5.20607016090E-02  5.33466009387E-02  5.46642619819E-02  5.60144692529E-02
  5.73980266434E-02  5.88157579015E-02  6.02685071217E-02  6.17571392476E-02
  6.32825405870E-02  6.48456193395E-02  6.64473061372E-02  6.80885545987E-02
  6.97703418973E-02  7.14936693422E-02  7.32595629750E-02  7.50690741804E-02
  7.69232803127E-02  7.88232853364E-02  8.07702204842E-02  8.27652449302E-02
  8.48095464800E-02  8.69043422780E-02  8.90508795323E-02  9.12504362567E-02
  9.35043220323E-02  9.58138787865E-02  9.81804815925E-02  1.00605539488E-01
  1.03090496313E-01  1.05636831572E-01  1.08246061312E-01  1.10919739026E-01
  1.13659456580E-01  1.16466845158E-01  1.19343576233E-01  1.22291362566E-01
  1.25311959222E-01  1.28407164614E-01  1.31578821580E-01  1.34828818473E-01
  1.38159090290E-01  1.41571619820E-01  1.45068438829E-01  1.48651629268E-01
  1.52323324511E-01  1.56085710627E-01  1.59941027679E-01  1.63891571063E-01
  1.67939692868E-01  1.72087803282E-01  1.76338372023E-01  1.80693929812E-01
  1.85157069878E-01  1.89730449504E-01  1.94416791607E-01  1.99218886360E-01
  2.04139592853E-01  2.09181840796E-01  2.14348632264E-01  2.19643043481E-01
  2.25068226655E-01  2.30627411853E-01  2.36323908926E-01  2.42161109477E-01
  2.48142488881E-01  2.54271608356E-01  2.60552117083E-01  2.66987754374E-01
  2.73582351908E-01  2.80339836000E-01  2.87264229949E-01  2.94359656429E-01
  3.01630339942E-01  3.09080609339E-01  3.16714900390E-01  3.24537758429E-01
  3.32553841062E-01  3.40767920937E-01  3.49184888584E-01  3.57809755332E-01
  3.66647656288E-01  3.75703853399E-01  3.84983738578E-01  3.94492836921E-01
  4.04236809993E-01  4.14221459199E-01  4.24452729242E-01  4.34936711654E-01
  4.45679648432E-01  4.56687935748E-01  4.67968127761E-01  4.79526940517E-01
  4.91371255947E-01  5.03508125969E-01  5.15944776681E-01  5.28688612665E-01
  5.41747221398E-01  5.55128377766E-01  5.68840048697E-01  5.82890397900E-01
  5.97287790728E-01  6.12040799159E-01  6.27158206898E-01  6.42649014608E-01
  6.58522445269E-01  6.74787949667E-01  6.91455212024E-01  7.08534155761E-01
  7.26034949409E-01  7.43968012659E-01  7.62344022572E-01  7.81173919929E-01
  8.00468915751E-01  8.20240497970E-01  8.40500438270E-01  8.61260799096E-01
  8.82533940833E-01  9.04332529172E-01  9.26669542642E-01  9.49558280346E-01
  9.73012369870E-01  9.97045775406E-01  1.02167280606E+00  1.04690812437E+00
  1.07276675504E+00  1.09926409389E+00  1.12641591701E+00  1.15423839016E+00
  1.18274807840E+00  1.21196195593E+00  1.24189741624E+00  1.27257228242E+00
  1.30400481780E+00  1.33621373680E+00  1.36921821610E+00  1.40303790604E+00
  1.43769294232E+00  1.47320395799E+00  1.50959209575E+00  1.54687902052E+00
  1.58508693233E+00  1.62423857955E+00  1.66435727247E+00  1.70546689710E+00
  1.74759192946E+00  1.79075745011E+00  1.83498915913E+00  1.88031339136E+00
  1.92675713213E+00  1.97434803329E+00  2.02311442972E+00  2.07308535613E+00
  2.12429056443E+00  2.17676054137E+00  2.23052652674E+00  2.28562053195E+00
  2.34207535909E+00  2.39992462046E+00  2.45920275858E+00  2.51994506672E+00
  2.58218770987E+00  2.64596774630E+00  2.71132314964E+00  2.77829283143E+00
  2.84691666437E+00  2.91723550598E+00  2.98929122298E+00  3.06312671618E+00
  3.13878594607E+00  3.21631395894E+00  3.29575691373E+00  3.37716210950E+00
  3.46057801360E+00  3.54605429054E+00  3.63364183151E+00  3.72339278475E+00
  3.81536058654E+00  3.90959999302E+00  4.00616711285E+00  4.10511944054E+00
  4.20651589072E+00  4.31041683322E+00  4.41688412900E+00  4.52598116699E+00
  4.63777290181E+00  4.75232589249E+00  4.86970834203E+00  4.98999013808E+00
  5.11324289449E+00  5.23953999398E+00  5.36895663183E+00  5.50156986064E+00
  5.63745863620E+00  5.77670386451E+00  5.91938844997E+00  6.06559734468E+00
  6.21541759909E+00  6.36893841379E+00  6.52625119261E+00  6.68744959707E+00
  6.85262960212E+00  7.02188955329E+00  7.19533022526E+00  7.37305488182E+00
  7.55516933740E+00  7.74178202003E+00  7.93300403593E+00  8.12894923562E+00
  8.32973428174E+00  8.53547871849E+00  8.74630504284E+00  8.96233877740E+00
  9.18370854520E+00  9.41054614627E+00  9.64298663608E+00  9.88116840599E+00
  1.01252332656E+01  1.03753265273E+01  1.06315970925E+01  1.08941975407E+01
  1.11632842199E+01  1.14390173402E+01  1.17215610685E+01  1.20110836269E+01
  1.23077573925E+01  1.26117590000E+01  1.29232694473E+01  1.32424742027E+01
  1.35695633155E+01  1.39047315294E+01  1.42481783982E+01  1.46001084046E+01
  1.49607310822E+01  1.53302611399E+01  1.57089185901E+01  1.60969288793E+01
  1.64945230226E+01  1.69019377412E+01  1.73194156035E+01  1.77472051689E+01
  1.81855611365E+01  1.86347444966E+01  1.90950226857E+01  1.95666697460E+01
  2.00499664887E+01  2.05452006610E+01  2.10526671173E+01  2.15726679951E+01
  2.21055128946E+01  2.26515190631E+01  2.32110115840E+01  2.37843235701E+01
  2.43717963623E+01  2.49737797324E+01  2.55906320918E+01  2.62227207045E+01
  2.68704219059E+01  2.75341213269E+01  2.82142141237E+01  2.89111052126E+01
  2.96252095113E+01  3.03569521863E+01  3.11067689053E+01  3.18751060972E+01
  3.26624212178E+01  3.34691830219E+01  3.42958718425E+01  3.51429798770E+01
  3.60110114800E+01  3.69004834636E+01  3.78119254051E+01  3.87458799626E+01
  3.97029031977E+01  4.06835649067E+01  4.16884489599E+01  4.27181536492E+01
  4.37732920443E+01  4.48544923578E+01  4.59623983191E+01  4.70976695575E+01
  4.82609819956E+01  4.94530282509E+01  5.06745180487E+01  5.19261786445E+01
  5.32087552570E+01  5.45230115119E+01  5.58697298962E+01  5.72497122246E+01
  5.86637801166E+01  6.01127754855E+01  6.15975610400E+01  6.31190207977E+01
  6.46780606114E+01  6.62756087085E+01  6.79126162436E+01  6.95900578648E+01
  7.13089322940E+01  7.30702629217E+01  7.48750984159E+01  7.67245133467E+01
  7.86196088264E+01
  </PP_R>
  <PP_RAB>
  1.17307148190E-05  1.20204634750E-05  1.23173689229E-05  1.26216079353E-05
  1.29333616513E-05  1.32528156841E-05  1.35801602314E-05  1.39155901892E-05
  1.42593052668E-05  1.46115101069E-05  1.49724144066E-05  1.53422330424E-05
  1.57211861986E-05  1.61094994977E-05  1.65074041353E-05  1.69151370174E-05
  1.73329409017E-05  1.77610645420E-05  1.81997628362E-05  1.86492969782E-05
  1.91099346136E-05  1.95819499986E-05  2.00656241635E-05  2.05612450804E-05
  2.10691078338E-05  2.15895147973E-05  2.21227758128E-05  2.26692083754E-05
  2.32291378223E-05  2.38028975265E-05  2.43908290954E-05  2.49932825741E-05
  2.56106166536E-05  2.62431988850E-05  2.68914058974E-05  2.75556236231E-05
  2.82362475266E-05  2.89336828405E-05  2.96483448067E-05  3.03806589234E-05
  3.11310611988E-05  3.18999984104E-05  3.26879283711E-05  3.34953202019E-05
  3.43226546109E-05  3.51704241798E-05  3.60391336570E-05  3.69293002584E-05
  3.78414539747E-05  3.87761378879E-05  3.97339084937E-05  4.07153360335E-05
  4.17210048336E-05  4.27515136530E-05  4.38074760402E-05  4.48895206984E-05
  4.59982918596E-05  4.71344496686E-05  4.82986705754E-05  4.94916477386E-05
  5.07140914377E-05  5.19667294962E-05  5.32503077148E-05  5.45655903154E-05
  5.59133603962E-05  5.72944203979E-05  5.87095925818E-05  6.01597195185E-05
  6.16456645906E-05  6.31683125060E-05  6.47285698249E-05  6.63273654996E-05
  6.79656514274E-05  6.96444030177E-05  7.13646197722E-05  7.31273258806E-05
  7.49335708299E-05  7.67844300294E-05  7.86810054511E-05  8.06244262857E-05
  8.26158496150E-05  8.46564611005E-05  8.67474756897E-05  8.88901383392E-05
  9.10857247562E-05  9.33355421577E-05  9.56409300489E-05  9.80032610212E-05
  1.00423941568E-04  1.02904412925E-04  1.05446151924E-04  1.08050671877E-04
  1.10719523472E-04  1.13454295702E-04  1.16256616806E-04  1.19128155241E-04
  1.22070620675E-04  1.25085765006E-04  1.28175383402E-04  1.31341315372E-04
  1.34585445861E-04  1.37909706374E-04  1.41316076122E-04  1.44806583202E-04
  1.48383305807E-04  1.52048373460E-04  1.55803968285E-04  1.59652326302E-04
  1.63595738761E-04  1.67636553509E-04  1.71777176380E-04  1.76020072637E-04
  1.80367768431E-04  1.84822852311E-04  1.89387976763E-04  1.94065859789E-04
  1.98859286526E-04  2.03771110903E-04  2.08804257343E-04  2.13961722499E-04
  2.19246577045E-04  2.24661967498E-04  2.30211118095E-04  2.35897332712E-04
  2.41723996830E-04  2.47694579552E-04  2.53812635666E-04  2.60081807767E-04
  2.66505828419E-04  2.73088522381E-04  2.79833808884E-04  2.86745703963E-04
  2.93828322851E-04  3.01085882426E-04  3.08522703722E-04  3.16143214504E-04
  3.23951951902E-04  3.31953565114E-04  3.40152818172E-04  3.48554592781E-04
  3.57163891223E-04  3.65985839336E-04  3.75025689568E-04  3.84288824100E-04
  3.93780758055E-04  4.03507142779E-04  4.13473769206E-04  4.23686571305E-04
  4.34151629616E-04  4.44875174868E-04  4.55863591687E-04  4.67123422402E-04
  4.78661370935E-04  4.90484306797E-04  5.02599269175E-04  5.15013471124E-04
  5.27734303860E-04  5.40769341166E-04  5.54126343893E-04  5.67813264587E-04
  5.81838252222E-04  5.96209657052E-04  6.10936035581E-04  6.26026155660E-04
  6.41489001705E-04  6.57333780047E-04  6.73569924414E-04  6.90207101547E-04
  7.07255216955E-04  7.24724420814E-04  7.42625114008E-04  7.60967954324E-04
  7.79763862796E-04  7.99024030207E-04  8.18759923753E-04  8.38983293870E-04
  8.59706181228E-04  8.80940923905E-04  9.02700164725E-04  9.24996858794E-04
  9.47844281206E-04  9.71256034952E-04  9.95246059015E-04  1.01982863667E-03
  1.04501840400E-03  1.07083035858E-03  1.09727986843E-03  1.12438268118E-03
  1.15215493341E-03  1.18061316027E-03  1.20977430532E-03  1.23965573067E-03
  1.27027522721E-03  1.30165102532E-03  1.33380180565E-03  1.36674671025E-03
  1.40050535399E-03  1.43509783624E-03  1.47054475279E-03  1.50686720819E-03
  1.54408682823E-03  1.58222577289E-03  1.62130674948E-03  1.66135302619E-03
  1.70238844593E-03  1.74443744055E-03  1.78752504533E-03  1.83167691395E-03
  1.87691933372E-03  1.92327924127E-03  1.97078423853E-03  2.01946260922E-03
  2.06934333567E-03  2.12045611606E-03  2.17283138212E-03  2.22650031726E-03
  2.28149487510E-03  2.33784779851E-03  2.39559263914E-03  2.45476377732E-03
  2.51539644262E-03  2.57752673476E-03  2.64119164510E-03  2.70642907874E-03
  2.77327787698E-03  2.84177784055E-03  2.91196975321E-03  2.98389540611E-03
  3.05759762264E-03  3.13312028392E-03  3.21050835493E-03  3.28980791130E-03
  3.37106616671E-03  3.45433150103E-03  3.53965348910E-03  3.62708293028E-03
  3.71667187866E-03  3.80847367406E-03  3.90254297381E-03  3.99893578527E-03
  4.09770949916E-03  4.19892292379E-03  4.30263632001E-03  4.40891143712E-03
  4.51781154961E-03  4.62940149489E-03  4.74374771181E-03  4.86091828029E-03
  4.98098296182E-03  5.10401324097E-03  5.23008236802E-03  5.35926540251E-03
  5.49163925796E-03  5.62728274763E-03  5.76627663149E-03  5.90870366429E-03
  6.05464864480E-03  6.20419846633E-03  6.35744216845E-03  6.51447099001E-03
  6.67537842346E-03  6.84026027052E-03  7.00921469920E-03  7.18234230227E-03
  7.35974615714E-03  7.54153188722E-03  7.72780772483E-03  7.91868457564E-03
  8.11427608465E-03  8.31469870395E-03  8.52007176193E-03  8.73051753445E-03
  8.94616131755E-03  9.16713150210E-03  9.39355965020E-03  9.62558057356E-03
  9.86333241373E-03  1.01069567243E-02  1.03565985554E-02  1.06124065398E-02
  1.08745329813E-02  1.11431339459E-02  1.14183693544E-02  1.17004030774E-02
  1.19894030335E-02  1.22855412884E-02  1.25889941582E-02  1.28999423139E-02
  1.32185708891E-02  1.35450695900E-02  1.38796328089E-02  1.42224597393E-02
  1.45737544948E-02  1.49337262309E-02  1.53025892688E-02  1.56805632237E-02
  1.60678731353E-02  1.64647496018E-02  1.68714289169E-02  1.72881532112E-02
  1.77151705955E-02  1.81527353092E-02  1.86011078713E-02  1.90605552358E-02
  1.95313509501E-02  2.00137753186E-02  2.05081155689E-02  2.10146660235E-02
  2.15337282743E-02  2.20656113626E-02  2.26106319633E-02  2.31691145728E-02
  2.37413917027E-02  2.43278040778E-02  2.49287008385E-02  2.55444397492E-02
  2.61753874110E-02  2.68219194801E-02  2.74844208912E-02  2.81632860873E-02
  2.88589192536E-02  2.95717345592E-02  3.03021564028E-02  3.10506196659E-02
  3.18175699717E-02  3.26034639500E-02  3.34087695095E-02  3.42339661164E-02
  3.50795450795E-02  3.59460098430E-02  3.68338762861E-02  3.77436730304E-02
  3.86759417542E-02  3.96312375155E-02  4.06101290822E-02  4.16131992705E-02
  4.26410452925E-02  4.36942791112E-02  4.47735278053E-02  4.58794339420E-02
  4.70126559604E-02  4.81738685626E-02  4.93637631161E-02  5.05830480651E-02
  5.18324493523E-02  5.31127108513E-02  5.44245948093E-02  5.57688823011E-02
  5.71463736940E-02  5.85578891242E-02  6.00042689856E-02  6.14863744295E-02
  6.30050878779E-02  6.45613135485E-02  6.61559779932E-02  6.77900306496E-02
  6.94644444066E-02  7.11802161835E-02  7.29383675232E-02  7.47399452010E-02
  7.65860218475E-02  7.84776965871E-02  8.04160956928E-02  8.24023732564E-02
  8.44377118759E-02  8.65233233592E-02  8.86604494462E-02  9.08503625475E-02
  9.30943665024E-02  9.53937973550E-02  9.77500241497E-02  1.00164449746E-01
  1.02638511655E-01  1.05173682893E-01  1.07771472860E-01  1.10433428240E-01
  1.13161133917E-01  1.15956213925E-01  1.18820332409E-01  1.21755194620E-01
  1.24762547927E-01  1.27844182861E-01  1.31001934177E-01  1.34237681951E-01
  1.37553352696E-01  1.40950920507E-01  1.44432408244E-01  1.47999888727E-01
  1.51655485979E-01  1.55401376483E-01  1.59239790482E-01  1.63173013307E-01
  1.67203386735E-01  1.71333310388E-01  1.75565243154E-01  1.79901704660E-01
  1.84345276765E-01  1.88898605101E-01  1.93564400647E-01  1.98345441343E-01
  2.03244573744E-01  2.08264714716E-01  2.13408853169E-01  2.18680051843E-01
  2.24081449123E-01  2.29616260917E-01  2.35287782561E-01  2.41099390790E-01
  2.47054545743E-01  2.53156793023E-01  2.59409765811E-01  2.65817187026E-01
  2.72382871546E-01  2.79110728473E-01  2.86004763466E-01  2.93069081124E-01
  3.00307887427E-01  3.07725492247E-01  3.15326311905E-01  3.23114871809E-01
  3.31095809143E-01  3.39273875629E-01  3.47653940357E-01  3.56240992684E-01
  3.65040145203E-01  3.74056636790E-01  3.83295835718E-01  3.92763242861E-01
  4.02464494959E-01  4.12405367985E-01  4.22591780574E-01  4.33029797554E-01
  4.43725633554E-01  4.54685656702E-01  4.65916392423E-01  4.77424527316E-01
  4.89216913141E-01  5.01300570895E-01  5.13682694996E-01  5.26370657563E-01
  5.39372012804E-01  5.52694501521E-01  5.66346055708E-01  5.80334803284E-01
  5.94669072925E-01  6.09357399027E-01  6.24408526783E-01  6.39831417394E-01
  6.55635253404E-01  6.71829444163E-01  6.88423631434E-01  7.05427695130E-01
  7.22851759200E-01  7.40706197652E-01  7.59001640734E-01  7.77748981260E-01
  7.96959381097E-01  8.16644277810E-01  8.36815391472E-01  8.57484731642E-01
  8.78664604513E-01  9.00367620245E-01  9.22606700465E-01  9.45395085966E-01
  9.68746344590E-01  9.92674379301E-01  1.01719343647E+00  1.04231811435E+00
  1.06806337178E+00  1.09444453706E+00  1.12147731712E+00  1.14917780686E+00
  1.17756249869E+00  1.20664829240E+00  1.23645250523E+00  1.26699288210E+00
  1.29828760629E+00  1.33035531017E+00  1.36321508633E+00  1.39688649896E+00
  1.43138959549E+00  1.46674491849E+00  1.50297351798E+00  1.54009696388E+00
  1.57813735888E+00  1.61711735165E+00  1.65706015023E+00  1.69798953594E+00
  1.73992987748E+00  1.78290614546E+00  1.82694392725E+00  1.87206944225E+00
  1.91830955747E+00
  </PP_RAB>
</PP_MESH>


<PP_LOCAL>
 -1.01591379171E+01 -1.01591381777E+01 -1.01591384412E+01 -1.01591387080E+01
 -1.01591389784E+01 -1.01591392530E+01 -1.01591395321E+01 -1.01591398162E+01
 -1.01591401058E+01 -1.01591404013E+01 -1.01591407032E+01 -1.01591410121E+01
 -1.01591413285E+01 -1.01591416530E+01 -1.01591419862E+01 -1.01591423286E+01
 -1.01591426810E+01 -1.01591430439E+01 -1.01591434182E+01 -1.01591438044E+01
 -1.01591442035E+01 -1.01591446161E+01 -1.01591450432E+01 -1.01591454855E+01
 -1.01591459441E+01 -1.01591464198E+01 -1.01591469136E+01 -1.01591474267E+01
 -1.01591479600E+01 -1.01591485147E+01 -1.01591490921E+01 -1.01591496933E+01
 -1.01591503198E+01 -1.01591509728E+01 -1.01591516538E+01 -1.01591523643E+01
 -1.01591531060E+01 -1.01591538805E+01 -1.01591546894E+01 -1.01591555347E+01
 -1.01591564183E+01 -1.01591573422E+01 -1.01591583084E+01 -1.01591593192E+01
 -1.01591603769E+01 -1.01591614840E+01 -1.01591626430E+01 -1.01591638566E+01
 -1.01591651275E+01 -1.01591664588E+01 -1.01591678535E+01 -1.01591693150E+01
 -1.01591708464E+01 -1.01591724516E+01 -1.01591741342E+01 -1.01591758981E+01
 -1.01591777476E+01 -1.01591796869E+01 -1.01591817205E+01 -1.01591838534E+01
 -1.01591860904E+01 -1.01591884369E+01 -1.01591908984E+01 -1.01591934807E+01
 -1.01591961899E+01 -1.01591990324E+01 -1.01592020149E+01 -1.01592051445E+01
 -1.01592084285E+01 -1.01592118748E+01 -1.01592154915E+01 -1.01592192871E+01
 -1.01592232707E+01 -1.01592274517E+01 -1.01592318400E+01 -1.01592364460E+01
 -1.01592412807E+01 -1.01592463554E+01 -1.01592516824E+01 -1.01592572741E+01
 -1.01592631439E+01 -1.01592693058E+01 -1.01592757742E+01 -1.01592825647E+01
 -1.01592896933E+01 -1.01592971770E+01 -1.01593050335E+01 -1.01593132816E+01
 -1.01593219407E+01 -1.01593310316E+01 -1.01593405758E+01 -1.01593505959E+01
 -1.01593611158E+01 -1.01593721606E+01 -1.01593837563E+01 -1.01593959307E+01
 -1.01594087127E+01 -1.01594221325E+01 -1.01594362222E+01 -1.01594510152E+01
 -1.01594665466E+01 -1.01594828535E+01 -1.01594999744E+01 -1.01595179502E+01
 -1.01595368235E+01 -1.01595566391E+01 -1.01595774442E+01 -1.01595992882E+01
 -1.01596222229E+01 -1.01596463029E+01 -1.01596715854E+01 -1.01596981303E+01
 -1.01597260007E+01 -1.01597552627E+01 -1.01597859859E+01 -1.01598182432E+01
 -1.01598521111E+01 -1.01598876699E+01 -1.01599250041E+01 -1.01599642022E+01
 -1.01600053571E+01 -1.01600485664E+01 -1.01600939325E+01 -1.01601415631E+01
 -1.01601915708E+01 -1.01602440742E+01 -1.01602991976E+01 -1.01603570715E+01
 -1.01604178329E+01 -1.01604816255E+01 -1.01605486002E+01 -1.01606189153E+01
 -1.01606927371E+01 -1.01607702399E+01 -1.01608516068E+01 -1.01609370299E+01
 -1.01610267106E+01 -1.01611208604E+01 -1.01612197014E+01 -1.01613234662E+01
 -1.01614323993E+01 -1.01615467569E+01 -1.01616668079E+01 -1.01617928344E+01
 -1.01619251324E+01 -1.01620640122E+01 -1.01622097996E+01 -1.01623628360E+01
 -1.01625234795E+01 -1.01626921059E+01 -1.01628691090E+01 -1.01630549019E+01
 -1.01632499176E+01 -1.01634546102E+01 -1.01636694557E+01 -1.01638949529E+01
 -1.01641316249E+01 -1.01643800196E+01 -1.01646407115E+01 -1.01649143021E+01
 -1.01652014219E+01 -1.01655027313E+01 -1.01658189218E+01 -1.01661507177E+01
 -1.01664988773E+01 -1.01668641944E+01 -1.01672474998E+01 -1.01676496631E+01
 -1.01680715939E+01 -1.01685142435E+01 -1.01689786069E+01 -1.01694657244E+01
 -1.01699766831E+01 -1.01705126189E+01 -1.01710747185E+01 -1.01716642206E+01
 -1.01722824186E+01 -1.01729306616E+01 -1.01736103569E+01 -1.01743229714E+01
 -1.01750700334E+01 -1.01758531347E+01 -1.01766739318E+01 -1.01775341478E+01
 -1.01784355737E+01 -1.01793800696E+01 -1.01803695664E+01 -1.01814060660E+01
 -1.01824916425E+01 -1.01836284427E+01 -1.01848186857E+01 -1.01860646631E+01
 -1.01873687380E+01 -1.01887333437E+01 -1.01901609822E+01 -1.01916542211E+01
 -1.01932156909E+01 -1.01948480806E+01 -1.01965541324E+01 -1.01983366359E+01
 -1.02001984207E+01 -1.02021423472E+01 -1.02041712970E+01 -1.02062881607E+01
 -1.02084958244E+01 -1.02107971540E+01 -1.02131949777E+01 -1.02156920657E+01
 -1.02182911077E+01 -1.02209946879E+01 -1.02238052566E+01 -1.02267250994E+01
 -1.02297563027E+01 -1.02329007159E+01 -1.02361599108E+01 -1.02395351367E+01
 -1.02430272721E+01 -1.02466367731E+01 -1.02503636181E+01 -1.02542072490E+01
 -1.02581665097E+01 -1.02622395809E+01 -1.02664239131E+01 -1.02707161576E+01
 -1.02751120960E+01 -1.02796065689E+01 -1.02841934059E+01 -1.02888653562E+01
 -1.02936140222E+01 -1.02984297970E+01 -1.03033018079E+01 -1.03082178665E+01
 -1.03131644274E+01 -1.03181265586E+01 -1.03230879229E+01 -1.03280307742E+01
 -1.03329359695E+01 -1.03377829982E+01 -1.03425500301E+01 -1.03472139827E+01
 -1.03517506097E+01 -1.03561346096E+01 -1.03603397544E+01 -1.03643390387E+01
 -1.03681048456E+01 -1.03716091292E+01 -1.03748236097E+01 -1.03777199774E+01
 -1.03802701017E+01 -1.03824462403E+01 -1.03842212420E+01 -1.03855687386E+01
 -1.03864633183E+01 -1.03868806755E+01 -1.03867977295E+01 -1.03861927065E+01
 -1.03850451799E+01 -1.03833360632E+01 -1.03810475517E+01 -1.03781630097E+01
 -1.03746668026E+01 -1.03705440712E+01 -1.03657804505E+01 -1.03603617342E+01
 -1.03542734874E+01 -1.03475006130E+01 -1.03400268758E+01 -1.03318343895E+01
 -1.03229030745E+01 -1.03132100913E+01 -1.03027292576E+01 -1.02914304531E+01
 -1.02792790211E+01 -1.02662351691E+01 -1.02522533759E+01 -1.02372818073E+01
 -1.02212617443E+01 -1.02041270276E+01 -1.01858035185E+01 -1.01662085796E+01
 -1.01452505751E+01 -1.01228283936E+01 -1.00988309937E+01 -1.00731369750E+01
 -1.00456141763E+01 -1.00161193063E+01 -9.98449760954E+00 -9.95058257681E+00
 -9.91419570586E+00 -9.87514632513E+00 -9.83323149283E+00 -9.78823598762E+00
 -9.73993241039E+00 -9.68808141964E+00 -9.63243212748E+00 -9.57272268698E+00
 -9.50868110646E+00 -9.44002633135E+00 -9.36646963930E+00 -9.28771640027E+00
 -9.20346825909E+00 -9.11342580424E+00 -9.01729179291E+00 -8.91477500867E+00
 -8.80559483329E+00 -8.68948661904E+00 -8.56620794976E+00 -8.43554587720E+00
 -8.29732521193E+00 -8.15141793026E+00 -7.99775372787E+00 -7.83633169835E+00
 -7.66723303446E+00 -7.49063453039E+00 -7.30682249560E+00 -7.11620646328E+00
 -6.91933178596E+00 -6.71688985912E+00 -6.50972432382E+00 -6.29883122219E+00
 -6.08535081470E+00 -5.87054878307E+00 -5.65578509299E+00 -5.44247021489E+00
 -5.23201103935E+00 -5.02575279058E+00 -4.82492799259E+00 -4.63062732635E+00
 -4.44380687993E+00 -4.26533824501E+00 -4.09609086130E+00 -3.93701444308E+00
 -3.78917432582E+00 -3.65369646110E+00 -3.53160522844E+00 -3.42357551496E+00
 -3.32965174245E+00 -3.24899790605E+00 -3.17975524368E+00 -3.11911129601E+00
 -3.06343993992E+00 -3.00861957414E+00 -2.95070407717E+00 -2.88723570186E+00
 -2.81917178428E+00 -2.75143831226E+00 -2.68545494369E+00 -2.62112819620E+00
 -2.55837757790E+00 -2.49713553579E+00 -2.43734590847E+00 -2.37896180853E+00
 -2.32194347544E+00 -2.26625637391E+00 -2.21186964447E+00 -2.15875491600E+00
 -2.10688544087E+00 -2.05623549493E+00 -2.00677998205E+00 -1.95849418949E+00
 -1.91135364976E+00 -1.86533407451E+00 -1.82041133480E+00 -1.77656146955E+00
 -1.73376070942E+00 -1.69198550816E+00 -1.65121257605E+00 -1.61141891275E+00
 -1.57258183769E+00 -1.53467901751E+00 -1.49768849010E+00 -1.46158868518E+00
 -1.42635844127E+00 -1.39197701919E+00 -1.35842411201E+00 -1.32567985154E+00
 -1.29372481160E+00 -1.26254000838E+00 -1.23210689817E+00 -1.20240737300E+00
 -1.17342375454E+00 -1.14513878678E+00 -1.11753562774E+00 -1.09059784073E+00
 -1.06430938516E+00 -1.03865460735E+00 -1.01361823132E+00 -9.89185349666E-01
 -9.65341414615E-01 -9.42072229320E-01 -9.19363939320E-01 -8.97203024235E-01
 -8.75576289672E-01 -8.54470859338E-01 -8.33874167349E-01 -8.13773950738E-01
 -7.94158242144E-01 -7.75015362679E-01 -7.56333914977E-01 -7.38102776398E-01
 -7.20311092415E-01 -7.02948270142E-01 -6.86003972033E-01 -6.69468109723E-01
 -6.53330838024E-01 -6.37582549062E-01 -6.22213866558E-01 -6.07215640244E-01
 -5.92578940415E-01 -5.78295052616E-01 -5.64355472446E-01 -5.50751900504E-01
 -5.37476237439E-01 -5.24520579135E-01 -5.11877211998E-01 -4.99538608371E-01
 -4.87497422047E-01 -4.75746483895E-01 -4.64278797594E-01 -4.53087535468E-01
 -4.42166034418E-01 -4.31507791957E-01 -4.21106462337E-01 -4.10955852773E-01
 -4.01049919755E-01 -3.91382765449E-01 -3.81948634184E-01 -3.72741909031E-01
 -3.63757108453E-01 -3.54988883042E-01 -3.46432012337E-01 -3.38081401714E-01
 -3.29932079354E-01 -3.21979193280E-01 -3.14218008471E-01 -3.06643904041E-01
 -2.99252370490E-01 -2.92039007017E-01 -2.84999518900E-01 -2.78129714941E-01
 -2.71425504968E-01 -2.64882897402E-01 -2.58497996880E-01 -2.52267001932E-01
 -2.46186202725E-01 -2.40251978847E-01 -2.34460797157E-01 -2.28809209678E-01
 -2.23293851545E-01 -2.17911439002E-01 -2.12658767446E-01 -2.07532709521E-01
 -2.02530213253E-01 -1.97648300237E-01 -1.92884063860E-01 -1.88234667571E-01
 -1.83697343194E-01 -1.79269389279E-01 -1.74948169492E-01 -1.70731111050E-01
 -1.66615703181E-01 -1.62599495639E-01 -1.58680097237E-01 -1.54855174429E-01
 -1.51122449916E-01 -1.47479701294E-01 -1.43924759728E-01 -1.40455508664E-01
 -1.37069882565E-01 -1.33765865683E-01 -1.30541490858E-01 -1.27394838351E-01
 -1.24324034694E-01 -1.21327251580E-01 -1.18402704772E-01 -1.15548653042E-01
 -1.12763397133E-01 -1.10045278748E-01 -1.07392679563E-01 -1.04804020262E-01
 -1.02277759600E-01 -9.98123934811E-02 -9.74064540657E-02 -9.50585088960E-02
 -9.27671600429E-02 -9.05310432741E-02 -8.83488272412E-02 -8.62192126878E-02
 -8.41409316754E-02 -8.21127468288E-02 -8.01334505990E-02 -7.82018645447E-02
 -7.63168386305E-02
</PP_LOCAL>


<PP_NONLOCAL>
  <PP_BETA>
    1    0             Beta    L
   409