<PP_INFO>
Generated using Fritz-Haber code                                                
Author: unknown    Generation date: as well                                     
Info: automatically converted from FHI format                                   
    1        The Pseudo was generated with a Scalar-Relativistic Calculation
nl pn  l   occ               Rcut            Rcut US             E pseu
1s  0  0  2.00      0.00000000000      0.00000000000      0.00000000000
2s  0  1  2.00      0.00000000000      0.00000000000      0.00000000000
2p  0  2  3.00      0.00000000000      0.00000000000      0.00000000000
</PP_INFO>


<PP_HEADER>
   0                   Version Number
  N                    Element
   NC                  Norm - Conserving pseudopotential
    F                  Nonlinear Core Correction
SLA  PZ   NOGX NOGC    PZ   Exchange-Correlation functional
    5.00000000000      Z valence
    0.00000000000      Total energy
    0.00000    0.00000 Suggested cutoff for wfc and rho
    1                  Max angular momentum component
  467                  Number of points in mesh
    3    2             Number of Wavefunctions, Number of Projectors
 Wavefunctions         nl  l   occ
                       1s  0  2.00
                       2s  1  2.00
                       2p  2  3.00
</PP_HEADER>


<PP_MESH>
  <PP_R>
  8.92857142857E-04  9.14910714286E-04  9.37509008929E-04  9.60665481449E-04
  9.84393918841E-04  1.00870844864E-03  1.03362354732E-03  1.05915404894E-03
  1.08531515395E-03  1.11212243825E-03  1.13959186247E-03  1.16773978148E-03
  1.19658295408E-03  1.22613855304E-03  1.25642417530E-03  1.28745785243E-03
  1.31925806139E-03  1.35184373550E-03  1.38523427577E-03  1.41944956238E-03
  1.45450996657E-03  1.49043636275E-03  1.52725014091E-03  1.56497321939E-03
  1.60362805791E-03  1.64323767094E-03  1.68382564141E-03  1.72541613475E-03
  1.76803391328E-03  1.81170435094E-03  1.85645344841E-03  1.90230784858E-03
  1.94929485244E-03  1.99744243530E-03  2.04677926345E-03  2.09733471126E-03
  2.14913887863E-03  2.20222260893E-03  2.25661750737E-03  2.31235595980E-03
  2.36947115201E-03  2.42799708946E-03  2.48796861757E-03  2.54942144243E-03
  2.61239215205E-03  2.67691823821E-03  2.74303811869E-03  2.81079116023E-03
  2.88021770188E-03  2.95135907912E-03  3.02425764837E-03  3.09895681229E-03
  3.17550104555E-03  3.25393592138E-03  3.33430813864E-03  3.41666554966E-03
  3.50105718874E-03  3.58753330130E-03  3.67614537384E-03  3.76694616457E-03
  3.85998973484E-03  3.95533148129E-03  4.05302816888E-03  4.15313796465E-03
  4.25572047238E-03  4.36083676804E-03  4.46854943621E-03  4.57892260729E-03
  4.69202199569E-03  4.80791493898E-03  4.92667043797E-03  5.04835919779E-03
  5.17305366998E-03  5.30082809563E-03  5.43175854959E-03  5.56592298576E-03
  5.70340128351E-03  5.84427529521E-03  5.98862889501E-03  6.13654802871E-03
  6.28812076502E-03  6.44343734792E-03  6.60259025041E-03  6.76567422960E-03
  6.93278638307E-03  7.10402620673E-03  7.27949565404E-03  7.45929919669E-03
  7.64354388685E-03  7.83233942085E-03  8.02579820455E-03  8.22403542020E-03
  8.42716909508E-03  8.63532017173E-03  8.84861257997E-03  9.06717331070E-03
  9.29113249147E-03  9.52062346401E-03  9.75578286357E-03  9.99675070030E-03
  1.02436704426E-02  1.04966891025E-02  1.07559573234E-02  1.10216294692E-02
  1.12938637171E-02  1.15728221510E-02  1.18586708581E-02  1.21515800283E-02
  1.24517240550E-02  1.27592816391E-02  1.30744358956E-02  1.33973744622E-02
  1.37282896115E-02  1.40673783649E-02  1.44148426105E-02  1.47708892230E-02
  1.51357301868E-02  1.55095827224E-02  1.58926694156E-02  1.62852183502E-02
  1.66874632434E-02  1.70996435855E-02  1.75220047821E-02  1.79547983002E-02
  1.83982818182E-02  1.88527193792E-02  1.93183815478E-02  1.97955455720E-02
  2.02844955477E-02  2.07855225877E-02  2.12989249956E-02  2.18250084430E-02
  2.23640861516E-02  2.29164790795E-02  2.34825161128E-02  2.40625342607E-02
  2.46568788570E-02  2.52659037648E-02  2.58899715877E-02  2.65294538860E-02
  2.71847313969E-02  2.78561942624E-02  2.85442422607E-02  2.92492850446E-02
  2.99717423852E-02  3.07120444221E-02  3.14706319193E-02  3.22479565277E-02
  3.30444810540E-02  3.38606797360E-02  3.46970385255E-02  3.55540553770E-02
  3.64322405449E-02  3.73321168863E-02  3.82542201734E-02  3.91990994117E-02
  4.01673171672E-02  4.11594499012E-02  4.21760883137E-02  4.32178376951E-02
  4.42853182862E-02  4.53791656478E-02  4.65000310393E-02  4.76485818060E-02
  4.88255017766E-02  5.00314916705E-02  5.12672695148E-02  5.25335710718E-02
  5.38311502772E-02  5.51607796891E-02  5.65232509474E-02  5.79193752458E-02
  5.93499838144E-02  6.08159284146E-02  6.23180818464E-02  6.38573384681E-02
  6.54346147282E-02  6.70508497120E-02  6.87070056999E-02  7.04040687407E-02
  7.21430492386E-02  7.39249825548E-02  7.57509296239E-02  7.76219775856E-02
  7.95392404319E-02  8.15038596706E-02  8.35170050045E-02  8.55798750281E-02
  8.76936979413E-02  8.98597322804E-02  9.20792676677E-02  9.43536255791E-02
  9.66841601309E-02  9.90722588862E-02  1.01519343681E-01  1.04026871470E-01
  1.06596335195E-01  1.09229264674E-01  1.11927227512E-01  1.14691830031E-01
  1.17524718233E-01  1.20427578773E-01  1.23402139969E-01  1.26450172826E-01
  1.29573492095E-01  1.32773957350E-01  1.36053474096E-01  1.39413994907E-01
  1.42857520581E-01  1.46386101339E-01  1.50001838042E-01  1.53706883442E-01
  1.57503443463E-01  1.61393778516E-01  1.65380204846E-01  1.69465095905E-01
  1.73650883774E-01  1.77940060603E-01  1.82335180100E-01  1.86838859049E-01
  1.91453778867E-01  1.96182687205E-01  2.01028399579E-01  2.05993801049E-01
  2.11081847935E-01  2.16295569579E-01  2.21638070147E-01  2.27112530480E-01
  2.32722209983E-01  2.38470448570E-01  2.44360668649E-01  2.50396377165E-01
  2.56581167681E-01  2.62918722522E-01  2.69412814969E-01  2.76067311499E-01
  2.82886174093E-01  2.89873462593E-01  2.97033337119E-01  3.04370060545E-01
  3.11888001041E-01  3.19591634667E-01  3.27485548043E-01  3.35574441080E-01
  3.43863129774E-01  3.52356549080E-01  3.61059755842E-01  3.69977931811E-01
  3.79116386727E-01  3.88480561479E-01  3.98076031348E-01  4.07908509322E-01
  4.17983849502E-01  4.28308050585E-01  4.38887259434E-01  4.49727774742E-01
  4.60836050779E-01  4.72218701233E-01  4.83882503153E-01  4.95834400981E-01
  5.08081510685E-01  5.20631123999E-01  5.33490712762E-01  5.46667933367E-01
  5.60170631321E-01  5.74006845915E-01  5.88184815009E-01  6.02712979940E-01
  6.17599990544E-01  6.32854710311E-01  6.48486221656E-01  6.64503831330E-01
  6.80917075964E-01  6.97735727741E-01  7.14969800216E-01  7.32629554281E-01
  7.50725504272E-01  7.69268424227E-01  7.88269354306E-01  8.07739607357E-01
  8.27690775659E-01  8.48134737818E-01  8.69083665842E-01  8.90550032388E-01
  9.12546618188E-01  9.35086519657E-01  9.58183156693E-01  9.81850280663E-01
  1.00610198260E+00  1.03095270157E+00  1.05641723329E+00  1.08251073896E+00
  1.10924875421E+00  1.13664719844E+00  1.16472238424E+00  1.19349102713E+00
  1.22297025550E+00  1.25317762081E+00  1.28413110804E+00  1.31584914641E+00
  1.34835062033E+00  1.38165488065E+00  1.41578175620E+00  1.45075156558E+00
  1.48658512925E+00  1.52330378195E+00  1.56092938536E+00  1.59948434118E+00
  1.63899160440E+00  1.67947469703E+00  1.72095772205E+00  1.76346537778E+00
  1.80702297262E+00  1.85165644004E+00  1.89739235411E+00  1.94425794526E+00
  1.99228111650E+00  2.04149046008E+00  2.09191527444E+00  2.14358558172E+00
  2.19653214559E+00  2.25078648959E+00  2.30638091588E+00  2.36334852450E+00
  2.42172323306E+00  2.48153979691E+00  2.54283382990E+00  2.60564182550E+00
  2.67000117859E+00  2.73595020770E+00  2.80352817783E+00  2.87277532382E+00
  2.94373287432E+00  3.01644307631E+00  3.09094922030E+00  3.16729566604E+00
  3.24552786899E+00  3.32569240736E+00  3.40783700982E+00  3.49201058396E+00
  3.57826324538E+00  3.66664634755E+00  3.75721251233E+00  3.85001566138E+00
  3.94511104822E+00  4.04255529111E+00  4.14240640680E+00  4.24472384505E+00
  4.34956852402E+00  4.45700286657E+00  4.56709083737E+00  4.67989798105E+00
  4.79549146119E+00  4.91394010028E+00  5.03531442075E+00  5.15968668695E+00
  5.28713094811E+00  5.41772308253E+00  5.55154084267E+00  5.68866390148E+00
  5.82917389985E+00  5.97315449518E+00  6.12069141121E+00  6.27187248907E+00
  6.42678773954E+00  6.58552939671E+00  6.74819197281E+00  6.91487231454E+00
  7.08566966071E+00  7.26068570133E+00  7.44002463815E+00  7.62379324671E+00
  7.81210093991E+00  8.00505983312E+00  8.20278481100E+00  8.40539359583E+00
  8.61300681765E+00  8.82574808604E+00  9.04374406377E+00  9.26712454215E+00
  9.49602251834E+00  9.73057427454E+00  9.97091945912E+00  1.02172011698E+01
  1.04695660387E+01  1.07281643198E+01  1.09931499785E+01  1.12646807830E+01
  1.15429183983E+01  1.18280284828E+01  1.21201807863E+01  1.24195492517E+01
  1.27263121182E+01  1.30406520275E+01  1.33627561326E+01  1.36928162091E+01
  1.40310287695E+01  1.43775951801E+01  1.47327217810E+01  1.50966200090E+01
  1.54695065232E+01  1.58516033343E+01  1.62431379367E+01  1.66443434437E+01
  1.70554587268E+01  1.74767285574E+01  1.79084037527E+01  1.83507413254E+01
  1.88040046362E+01  1.92684635507E+01  1.97443946004E+01  2.02320811470E+01
  2.07318135513E+01  2.12438893460E+01  2.17686134129E+01  2.23062981642E+01
  2.28572637288E+01  2.34218381429E+01  2.40003575451E+01  2.45931663764E+01
  2.52006175859E+01  2.58230728403E+01  2.64609027395E+01  2.71144870371E+01
  2.77842148669E+01  2.84704849742E+01  2.91737059530E+01  2.98942964901E+01
  3.06326856134E+01  3.13893129480E+01  3.21646289778E+01  3.29590953136E+01
  3.37731849678E+01  3.46073826365E+01  3.54621849877E+01  3.63381009569E+01
  3.72356520505E+01  3.81553726561E+01  3.90978103607E+01  4.00635262767E+01
  4.10530953757E+01  4.20671068315E+01  4.31061643702E+01  4.41708866302E+01
  4.52619075299E+01  4.63798766459E+01  4.75254595991E+01  4.86993384512E+01
  4.99022121109E+01  5.11347967500E+01  5.23978262298E+01  5.36920525376E+01
  5.50182462353E+01  5.63771969173E+01  5.77697136812E+01  5.91966256091E+01
  6.06587822617E+01  6.21570541835E+01  6.36923334219E+01  6.52655340574E+01
  6.68775927486E+01  6.85294692895E+01  7.02221471809E+01  7.19566342163E+01
  7.37339630814E+01  7.55551919696E+01  7.74214052112E+01
  </PP_R>
  <PP_RAB>
  2.17856132353E-05  2.23237178822E-05  2.28751137139E-05  2.34401290226E-05
  2.40191002095E-05  2.46123719847E-05  2.52202975727E-05  2.58432389227E-05
  2.64815669241E-05  2.71356616272E-05  2.78059124693E-05  2.84927185073E-05
  2.91964886545E-05  2.99176419242E-05  3.06566076798E-05  3.14138258895E-05
  3.21897473889E-05  3.29848341494E-05  3.37995595529E-05  3.46344086739E-05
  3.54898785681E-05  3.63664785688E-05  3.72647305894E-05  3.81851694350E-05
  3.91283431200E-05  4.00948131951E-05  4.10851550810E-05  4.20999584115E-05
  4.31398273842E-05  4.42053811206E-05  4.52972540343E-05  4.64160962090E-05
  4.75625737853E-05  4.87373693578E-05  4.99411823810E-05  5.11747295858E-05
  5.24387454065E-05  5.37339824181E-05  5.50612117838E-05  5.64212237149E-05
  5.78148279406E-05  5.92428541908E-05  6.07061526893E-05  6.22055946607E-05
  6.37420728488E-05  6.53165020482E-05  6.69298196488E-05  6.85829861941E-05
  7.02769859531E-05  7.20128275061E-05  7.37915443455E-05  7.56141954909E-05
  7.74818661195E-05  7.93956682126E-05  8.13567412175E-05  8.33662527256E-05
  8.54253991679E-05  8.75354065273E-05  8.96975310686E-05  9.19130600860E-05
  9.41833126701E-05  9.65096404930E-05  9.88934286132E-05  1.01336096300E-04
  1.03839097879E-04  1.06403923596E-04  1.09032100509E-04  1.11725193392E-04
  1.14484805668E-04  1.17312580368E-04  1.20210201103E-04  1.23179393071E-04
  1.26221924080E-04  1.29339605604E-04  1.32534293863E-04  1.35807890921E-04
  1.39162345827E-04  1.42599655769E-04  1.46121867266E-04  1.49731077388E-04
  1.53429434999E-04  1.57219142044E-04  1.61102454852E-04  1.65081685487E-04
  1.69159203119E-04  1.73337435436E-04  1.77618870091E-04  1.82006056182E-04
  1.86501605770E-04  1.91108195432E-04  1.95828567860E-04  2.00665533486E-04
  2.05621972163E-04  2.10700834875E-04  2.15905145497E-04  2.21238002590E-04
  2.26702581254E-04  2.32302135011E-04  2.38039997746E-04  2.43919585690E-04
  2.49944399457E-04  2.56118026124E-04  2.62444141369E-04  2.68926511661E-04
  2.75568996499E-04  2.82375550712E-04  2.89350226815E-04  2.96497177417E-04
  3.03820657699E-04  3.11325027944E-04  3.19014756135E-04  3.26894420611E-04
  3.34968712800E-04  3.43242440007E-04  3.51720528275E-04  3.60408025323E-04
  3.69310103549E-04  3.78432063106E-04  3.87779335065E-04  3.97357484641E-04
  4.07172214512E-04  4.17229368210E-04  4.27534933605E-04  4.38095046465E-04
  4.48915994113E-04  4.60004219167E-04  4.71366323381E-04  4.83009071568E-04
  4.94939395636E-04  5.07164398708E-04  5.19691359356E-04  5.32527735932E-04
  5.45681171010E-04  5.59159495934E-04  5.72970735483E-04  5.87123112650E-04
  6.01625053532E-04  6.16485192354E-04  6.31712376605E-04  6.47315672308E-04
  6.63304369414E-04  6.79687987338E-04  6.96476280625E-04  7.13679244757E-04
  7.31307122102E-04  7.49370408018E-04  7.67879857096E-04  7.86846489567E-04
  8.06281597859E-04  8.26196753326E-04  8.46603813133E-04  8.67514927318E-04
  8.88942546022E-04  9.10899426909E-04  9.33398642754E-04  9.56453589230E-04
  9.80077992884E-04  1.00428591931E-03  1.02909178151E-03  1.05451034852E-03
  1.08055675413E-03  1.10724650595E-03  1.13459549465E-03  1.16262000337E-03
  1.19133671745E-03  1.22076273437E-03  1.25091557391E-03  1.28181318859E-03
  1.31347397435E-03  1.34591678151E-03  1.37916092602E-03  1.41322620089E-03
  1.44813288805E-03  1.48390177038E-03  1.52055414411E-03  1.55811183147E-03
  1.59659719371E-03  1.63603314439E-03  1.67644316306E-03  1.71785130919E-03
  1.76028223653E-03  1.80376120777E-03  1.84831410960E-03  1.89396746811E-03
  1.94074846457E-03  1.98868495164E-03  2.03780546995E-03  2.08813926506E-03
  2.13971630490E-03  2.19256729764E-03  2.24672370989E-03  2.30221778552E-03
  2.35908256482E-03  2.41735190417E-03  2.47706049621E-03  2.53824389046E-03
  2.60093851456E-03  2.66518169587E-03  2.73101168376E-03  2.79846767234E-03
  2.86758982385E-03  2.93841929250E-03  3.01099824903E-03  3.08536990578E-03
  3.16157854245E-03  3.23966953245E-03  3.31968936990E-03  3.40168569734E-03
  3.48570733406E-03  3.57180430521E-03  3.66002787155E-03  3.75043055998E-03
  3.84306619481E-03  3.93798992982E-03  4.03525828109E-03  4.13492916063E-03
  4.23706191090E-03  4.34171734010E-03  4.44895775840E-03  4.55884701503E-03
  4.67145053630E-03  4.78683536455E-03  4.90507019805E-03  5.02622543194E-03
  5.15037320011E-03  5.27758741816E-03  5.40794382738E-03  5.54152003992E-03
  5.67839558491E-03  5.81865195585E-03  5.96237265916E-03  6.10964326384E-03
  6.26055145246E-03  6.41518707334E-03  6.57364219405E-03  6.73601115624E-03
  6.90239063180E-03  7.07287968041E-03  7.24757980851E-03  7.42659502978E-03
  7.61003192702E-03  7.79799971562E-03  7.99061030859E-03  8.18797838321E-03
  8.39022144928E-03  8.59745991908E-03  8.80981717908E-03  9.02741966340E-03
  9.25039692909E-03  9.47888173323E-03  9.71301011205E-03  9.95292146181E-03
  1.01987586219E-02  1.04506679599E-02  1.07087994585E-02  1.09733068051E-02
  1.12443474832E-02  1.15220828660E-02  1.18066783128E-02  1.20983032672E-02
  1.23971313579E-02  1.27033405024E-02  1.30171130128E-02  1.33386357042E-02
  1.36681000061E-02  1.40057020763E-02  1.43516429175E-02  1.47061284976E-02
  1.50693698715E-02  1.54415833073E-02  1.58229904150E-02  1.62138182783E-02
  1.66142995897E-02  1.70246727896E-02  1.74451822075E-02  1.78760782080E-02
  1.83176173398E-02  1.87700624881E-02  1.92336830315E-02  1.97087550024E-02
  2.01955612510E-02  2.06943916139E-02  2.12055430867E-02  2.17293200010E-02
  2.22660342050E-02  2.28160052499E-02  2.33795605795E-02  2.39570357258E-02
  2.45487745083E-02  2.51551292386E-02  2.57764609308E-02  2.64131395158E-02
  2.70655440618E-02  2.77340630002E-02  2.84190943563E-02  2.91210459869E-02
  2.98403358228E-02  3.05773921176E-02  3.13326537029E-02  3.21065702493E-02
  3.28996025345E-02  3.37122227171E-02  3.45449146182E-02  3.53981740093E-02
  3.62725089073E-02  3.71684398773E-02  3.80865003423E-02  3.90272369007E-02
  3.99912096522E-02  4.09789925306E-02  4.19911736461E-02  4.30283556352E-02
  4.40911560194E-02  4.51802075730E-02  4.62961587001E-02  4.74396738200E-02
  4.86114337633E-02  4.98121361773E-02  5.10424959409E-02  5.23032455906E-02
  5.35951357567E-02  5.49189356099E-02  5.62754333195E-02  5.76654365224E-02
  5.90897728045E-02  6.05492901928E-02  6.20448576606E-02  6.35773656448E-02
  6.51477265762E-02  6.67568754227E-02  6.84057702456E-02  7.00953927707E-02
  7.18267489721E-02  7.36008696717E-02  7.54188111526E-02  7.72816557881E-02
  7.91905126860E-02  8.11465183494E-02  8.31508373526E-02  8.52046630352E-02
  8.73092182122E-02  8.94657559020E-02  9.16755600728E-02  9.39399464066E-02
  9.62602630829E-02  9.86378915810E-02  1.01074247503E-01  1.03570781416E-01
  1.06128979717E-01  1.08750365516E-01  1.11436499545E-01  1.14188981083E-01
  1.17009448916E-01  1.19899582304E-01  1.22861101987E-01  1.25895771206E-01
  1.29005396755E-01  1.32191830055E-01  1.35456968257E-01  1.38802755373E-01
  1.42231183431E-01  1.45744293662E-01  1.49344177715E-01  1.53032978905E-01
  1.56812893484E-01  1.60686171953E-01  1.64655120400E-01  1.68722101874E-01
  1.72889537790E-01  1.77159909374E-01  1.81535759135E-01  1.86019692386E-01
  1.90614378788E-01  1.95322553944E-01  2.00147021026E-01  2.05090652446E-01
  2.10156391561E-01  2.15347254433E-01  2.20666331617E-01  2.26116790008E-01
  2.31701874721E-01  2.37424911027E-01  2.43289306329E-01  2.49298552195E-01
  2.55456226435E-01  2.61765995228E-01  2.68231615310E-01  2.74856936208E-01
  2.81645902532E-01  2.88602556325E-01  2.95731039466E-01  3.03035596141E-01
  3.10520575365E-01  3.18190433577E-01  3.26049737286E-01  3.34103165797E-01
  3.42355513993E-01  3.50811695188E-01  3.59476744059E-01  3.68355819638E-01
  3.77454208383E-01  3.86777327330E-01  3.96330727315E-01  4.06120096279E-01
  4.16151262657E-01  4.26430198845E-01  4.36963024757E-01  4.47756011468E-01
  4.58815584951E-01  4.70148329900E-01  4.81760993648E-01  4.93660490191E-01
  5.05853904299E-01  5.18348495735E-01  5.31151703580E-01  5.44271150658E-01
  5.57714648079E-01  5.71490199887E-01  5.85606007824E-01  6.00070476218E-01
  6.14892216980E-01  6.30080054740E-01  6.45643032092E-01  6.61590414984E-01
  6.77931698234E-01  6.94676611181E-01  7.11835123477E-01  7.29417451027E-01
  7.47434062067E-01  7.65895683400E-01  7.84813306780E-01  8.04198195458E-01
  8.24061890885E-01  8.44416219590E-01  8.65273300214E-01  8.86645550730E-01
  9.08545695833E-01  9.30986774520E-01  9.53982147850E-01  9.77545506902E-01
  1.00169088092E+00  1.02643264568E+00  1.05178553203E+00  1.07776463467E+00
  1.10438542115E+00  1.13166374105E+00  1.15961583545E+00  1.18825834659E+00
  1.21760832775E+00  1.24768325345E+00  1.27850102981E+00  1.31008000524E+00
  1.34243898137E+00  1.37559722421E+00  1.40957447565E+00  1.44439096520E+00
  1.48006742204E+00  1.51662508736E+00  1.55408572702E+00  1.59247164448E+00
  1.63180569410E+00  1.67211129474E+00  1.71341244372E+00  1.75573373108E+00
  1.79910035424E+00  1.84353813299E+00  1.88907352487E+00
  </PP_RAB>
</PP_MESH>


<PP_LOCAL>
 -1.74836343734E+01 -1.74836414427E+01 -1.74836487674E+01 -1.74836563566E+01
 -1.74836642381E+01 -1.74836723984E+01 -1.74836808482E+01 -1.74836895981E+01
 -1.74836986588E+01 -1.74837080416E+01 -1.74837177582E+01 -1.74837278205E+01
 -1.74837382411E+01 -1.74837490328E+01 -1.74837602090E+01 -1.74837717833E+01
 -1.74837837701E+01 -1.74837961841E+01 -1.74838090405E+01 -1.74838223552E+01
 -1.74838361444E+01 -1.74838504252E+01 -1.74838652149E+01 -1.74838805318E+01
 -1.74838963945E+01 -1.74839128225E+01 -1.74839298359E+01 -1.74839474554E+01
 -1.74839657025E+01 -1.74839845996E+01 -1.74840041696E+01 -1.74840244365E+01
 -1.74840454249E+01 -1.74840671604E+01 -1.74840896695E+01 -1.74841129795E+01
 -1.74841371189E+01 -1.74841621169E+01 -1.74841880039E+01 -1.74842148115E+01
 -1.74842425721E+01 -1.74842713195E+01 -1.74843010885E+01 -1.74843319153E+01
 -1.74843638373E+01 -1.74843968932E+01 -1.74844311230E+01 -1.74844665683E+01
 -1.74845032720E+01 -1.74845412786E+01 -1.74845806342E+01 -1.74846213864E+01
 -1.74846635846E+01 -1.74847072799E+01 -1.74847525252E+01 -1.74847993754E+01
 -1.74848478873E+01 -1.74848981196E+01 -1.74849501331E+01 -1.74850039910E+01
 -1.74850597585E+01 -1.74851175033E+01 -1.74851772954E+01 -1.74852392073E+01
 -1.74853033144E+01 -1.74853696943E+01 -1.74854384279E+01 -1.74855095986E+01
 -1.74855832931E+01 -1.74856596012E+01 -1.74857386158E+01 -1.74858204334E+01
 -1.74859051537E+01 -1.74859928803E+01 -1.74860837206E+01 -1.74861777858E+01
 -1.74862751913E+01 -1.74863760566E+01 -1.74864805057E+01 -1.74865886672E+01
 -1.74867006746E+01 -1.74868166661E+01 -1.74869367853E+01 -1.74870611809E+01
 -1.74871900077E+01 -1.74873234257E+01 -1.74874616014E+01 -1.74876047075E+01
 -1.74877529232E+01 -1.74879064346E+01 -1.74880654351E+01 -1.74882301253E+01
 -1.74884007136E+01 -1.74885774167E+01 -1.74887604595E+01 -1.74889500759E+01
 -1.74891465089E+01 -1.74893500111E+01 -1.74895608453E+01 -1.74897792845E+01
 -1.74900056128E+01 -1.74902401258E+01 -1.74904831310E+01 -1.74907349484E+01
 -1.74909959111E+01 -1.74912663659E+01 -1.74915466740E+01 -1.74918372116E+01
 -1.74921383705E+01 -1.74924505592E+01 -1.74927742034E+01 -1.74931097468E+01
 -1.74934576522E+01 -1.74938184023E+01 -1.74941925009E+01 -1.74945804736E+01
 -1.74949828689E+01 -1.74954002599E+01 -1.74958332450E+01 -1.74962824493E+01
 -1.74967485263E+01 -1.74972321588E+01 -1.74977340610E+01 -1.74982549800E+01
 -1.74987956972E+01 -1.74993570306E+01 -1.74999398366E+01 -1.75005450119E+01
 -1.75011734959E+01 -1.75018262730E+01 -1.75025043752E+01 -1.75032088844E+01
 -1.75039409354E+01 -1.75047017190E+01 -1.75054924850E+01 -1.75063145455E+01
 -1.75071692787E+01 -1.75080581322E+01 -1.75089826276E+01 -1.75099443645E+01
 -1.75109450249E+01 -1.75119863783E+01 -1.75130702868E+01 -1.75141987102E+01
 -1.75153737122E+01 -1.75165974666E+01 -1.75178722634E+01 -1.75192005162E+01
 -1.75205847694E+01 -1.75220277060E+01 -1.75235321563E+01 -1.75251011063E+01
 -1.75267377073E+01 -1.75284452860E+01 -1.75302273550E+01 -1.75320876240E+01
 -1.75340300118E+01 -1.75360586589E+01 -1.75381779408E+01 -1.75403924824E+01
 -1.75427071725E+01 -1.75451271802E+01 -1.75476579712E+01 -1.75503053255E+01
 -1.75530753563E+01 -1.75559745292E+01 -1.75590096830E+01 -1.75621880515E+01
 -1.75655172862E+01 -1.75690054800E+01 -1.75726611925E+01 -1.75764934761E+01
 -1.75805119032E+01 -1.75847265947E+01 -1.75891482499E+01 -1.75937881770E+01
 -1.75986583254E+01 -1.76037713183E+01 -1.76091404874E+01 -1.76147799074E+01
 -1.76207044326E+01 -1.76269297336E+01 -1.76334723350E+01 -1.76403496537E+01
 -1.76475800380E+01 -1.76551828062E+01 -1.76631782863E+01 -1.76715878551E+01
 -1.76804339769E+01 -1.76897402417E+01 -1.76995314024E+01 -1.77098334108E+01
 -1.77206734512E+01 -1.77320799726E+01 -1.77440827177E+01 -1.77567127482E+01
 -1.77700024664E+01 -1.77839856319E+01 -1.77986973724E+01 -1.78141741879E+01
 -1.78304539472E+01 -1.78475758756E+01 -1.78655805313E+01 -1.78845097716E+01
 -1.79044067036E+01 -1.79253156214E+01 -1.79472819235E+01 -1.79703520126E+01
 -1.79945731705E+01 -1.80199934087E+01 -1.80466612897E+01 -1.80746257155E+01
 -1.81039356793E+01 -1.81346399762E+01 -1.81667868673E+01 -1.82004236918E+01
 -1.82355964213E+01 -1.82723491492E+01 -1.83107235079E+01 -1.83507580059E+01
 -1.83924872759E+01 -1.84359412243E+01 -1.84811440726E+01 -1.85281132789E+01
 -1.85768583282E+01 -1.86273793798E+01 -1.86796657587E+01 -1.87336942774E+01
 -1.87894273762E+01 -1.88468110671E+01 -1.89057726696E+01 -1.89662183261E+01
 -1.90280302858E+01 -1.90910639501E+01 -1.91551446706E+01 -1.92200643017E+01
 -1.92855775075E+01 -1.93513978343E+01 -1.94171935645E+01 -1.94825833799E+01
 -1.95471318713E+01 -1.96103449467E+01 -1.96716652049E+01 -1.97304673601E+01
 -1.97860538234E+01 -1.98376505696E+01 -1.98844034431E+01 -1.99253750880E+01
 -1.99595427146E+01 -1.99857969576E+01 -2.00029421158E+01 -2.00096981189E+01
 -2.00047046150E+01 -1.99865276416E+01 -1.99536694058E+01 -1.99045817720E+01
 -1.98376841129E+01 -1.97513862212E+01 -1.96441169776E+01 -1.95143594124E+01
 -1.93606926526E+01 -1.91818410021E+01 -1.89767300251E+01 -1.87445489959E+01
 -1.84848184116E+01 -1.81974604570E+01 -1.78828693531E+01 -1.75419774644E+01
 -1.71763119197E+01 -1.67880354481E+01 -1.63799642779E+01 -1.59555555301E+01
 -1.55188568273E+01 -1.50744121352E+01 -1.46271204425E+01 -1.41820479305E+01
 -1.37441997482E+01 -1.33182640358E+01 -1.29083476635E+01 -1.25177291207E+01
 -1.21486576179E+01 -1.18022272463E+01 -1.14783497662E+01 -1.11758388873E+01
 -1.08926035770E+01 -1.06259302500E+01 -1.03728171723E+01 -1.01303131603E+01
 -9.89581029116E+00 -9.66724865993E+00 -9.44320924018E+00 -9.22289454901E+00
 -9.00601983808E+00 -8.79265342230E+00 -8.58304915395E+00 -8.37750652889E+00
 -8.17627823875E+00 -7.97952747736E+00 -7.78732404331E+00 -7.59966254826E+00
 -7.41648744478E+00 -7.23771507466E+00 -7.06324890910E+00 -6.89298826253E+00
 -6.72683249657E+00 -6.56468259025E+00 -6.40644187222E+00 -6.25201594011E+00
 -6.10131271291E+00 -5.95424236357E+00 -5.81071725580E+00 -5.67065188458E+00
 -5.53396281969E+00 -5.40056865197E+00 -5.27038994175E+00 -5.14334916939E+00
 -5.01937068744E+00 -4.89838067447E+00 -4.78030709027E+00 -4.66507963239E+00
 -4.55262969386E+00 -4.44289032206E+00 -4.33579617865E+00 -4.23128350054E+00
 -4.12929006184E+00 -4.02975513673E+00 -3.93261946329E+00 -3.83782520816E+00
 -3.74531593209E+00 -3.65503655635E+00 -3.56693332987E+00 -3.48095379731E+00
 -3.39704676773E+00 -3.31516228419E+00 -3.23525159393E+00 -3.15726711941E+00
 -3.08116242992E+00 -3.00689221396E+00 -2.93441225227E+00 -2.86367939147E+00
 -2.79465151839E+00 -2.72728753500E+00 -2.66154733389E+00 -2.59739177446E+00
 -2.53478265957E+00 -2.47368271278E+00 -2.41405555622E+00 -2.35586568887E+00
 -2.29907846545E+00 -2.24366007579E+00 -2.18957752467E+00 -2.13679861225E+00
 -2.08529191481E+00 -2.03502676609E+00 -1.98597323904E+00 -1.93810212798E+00
 -1.89138493120E+00 -1.84579383402E+00 -1.80130169225E+00 -1.75788201595E+00
 -1.71550895375E+00 -1.67415727739E+00 -1.63380236675E+00 -1.59442019516E+00
 -1.55598731511E+00 -1.51848084429E+00 -1.48187845195E+00 -1.44615834564E+00
 -1.41129925818E+00 -1.37728043507E+00 -1.34408162208E+00 -1.31168305318E+00
 -1.28006543883E+00 -1.24920995445E+00 -1.21909822921E+00 -1.18971233512E+00
 -1.16103477634E+00 -1.13304847874E+00 -1.10573677979E+00 -1.07908341858E+00
 -1.05307252616E+00 -1.02768861611E+00 -1.00291657531E+00 -9.78741654900E-01
 -9.55149461568E-01 -9.32125948930E-01 -9.09657409183E-01 -8.87730464944E-01
 -8.66332061286E-01 -8.45449457959E-01 -8.25070221812E-01 -8.05182219386E-01
 -7.85773609694E-01 -7.66832837165E-01 -7.48348624772E-01 -7.30309967312E-01
 -7.12706124857E-01 -6.95526616358E-01 -6.78761213408E-01 -6.62399934148E-01
 -6.46433037331E-01 -6.30851016512E-01 -6.15644594401E-01 -6.00804717329E-01
 -5.86322549862E-01 -5.72189469543E-01 -5.58397061753E-01 -5.44937114708E-01
 -5.31801614562E-01 -5.18982740643E-01 -5.06472860322E-01 -4.94264526093E-01
 -4.82350469497E-01 -4.70723596659E-01 -4.59376985127E-01 -4.48303879308E-01
 -4.37497686452E-01 -4.26951972726E-01 -4.16660459379E-01 -4.06617019010E-01
 -3.96815671914E-01 -3.87250582525E-01 -3.77916055943E-01 -3.68806534540E-01
 -3.59916594652E-01 -3.51240943352E-01 -3.42774415294E-01 -3.34511969644E-01
 -3.26448687073E-01 -3.18579766832E-01 -3.10900523892E-01 -3.03406386154E-01
 -2.96092891728E-01 -2.88955686277E-01 -2.81990520423E-01 -2.75193247217E-01
 -2.68559819671E-01 -2.62086288348E-01 -2.55768799013E-01 -2.49603590332E-01
 -2.43586991638E-01 -2.37715420746E-01 -2.31985381815E-01 -2.26393463272E-01
 -2.20936335778E-01 -2.15610750247E-01 -2.10413535910E-01 -2.05341598429E-01
 -2.00391918053E-01 -1.95561547822E-01 -1.90847611810E-01 -1.86247303416E-01
 -1.81757883689E-01 -1.77376679700E-01 -1.73101082951E-01 -1.68928547820E-01
 -1.64856590046E-01 -1.60882785250E-01 -1.57004767493E-01 -1.53220227865E-01
 -1.49526913111E-01 -1.45922624291E-01 -1.42405215469E-01 -1.38972592436E-01
 -1.35622711463E-01 -1.32353578084E-01 -1.29163245910E-01
</PP_LOCAL>


<PP_NONLOCAL>
  <PP_BETA>
    1    0             Beta    L
   384
  1.06974627625E-02  1.09617063295E-02  1.12324777334E-02  1.15099382759E-02
  1.17942532819E-02  1.20855921499E-02  1.23841284409E-02  1.26900400190E-02
  1.30035091450E-02  1.33247225877E-02  1.36538717348E-02  1.39911527083E-02
  1.43367664809E-02  1.46909189972E-02  1.50538212960E-02  1.54256896376E-02
  1.58067456327E-02  1.61972163750E-02  1.65973345779E-02  1.70073387134E-02
  1.74274731550E-02  1.78579883245E-02  1.82991408421E-02  1.87511936801E-02
  1.92144163209E-02  1.96890849187E-02  2.01754824650E-02  2.06738989590E-02
  2.11846315816E-02  2.17079848736E-02  2.22442709195E-02  2.27938095346E-02
  2.33569284576E-02  2.39339635477E-02  2.45252589869E-02  2.51311674875E-02
  2.57520505043E-02  2.63882784525E-02  2.70402309313E-02  2.77082969528E-02
  2.83928751772E-02  2.90943741530E-02  2.98132125643E-02  3.05498194839E-02
  3.13046346331E-02  3.20781086474E-02  3.28707033502E-02  3.36828920321E-02
  3.45151597383E-02  3.53680035633E-02  3.62419329523E-02  3.71374700113E-02
  3.80551498249E-02  3.89955207815E-02  3.99591449083E-02  4.09465982136E-02
  4.19584710386E-02  4.29953684180E-02  4.40579104506E-02  4.51467326785E-02
  4.62624864767E-02  4.74058394532E-02  4.85774758588E-02  4.97780970080E-02
  5.10084217110E-02  5.22691867168E-02  5.35611471680E-02  5.48850770680E-02
  5.62417697598E-02  5.76320384179E-02  5.90567165537E-02  6.05166585332E-02
  6.20127401098E-02  6.35458589705E-02  6.51169352967E-02  6.67269123413E-02
  6.83767570194E-02  7.00674605168E-02  7.18000389142E-02  7.35755338282E-02